title="breakthrough data set at     5 wells"
variables="time(days)","cavg","cpk","upk","zswi"
zone i=     1295
   0.100000E+02   0.537673E-10   0.109430E-09   0.440024E+00   0.484521E+01
   0.200000E+02   0.955496E-10   0.188209E-09   0.374361E+00   0.482536E+01
   0.300000E+02   0.162614E-09   0.310716E-09   0.373893E+00   0.482536E+01
   0.400000E+02   0.266517E-09   0.497688E-09   0.373706E+00   0.482536E+01
   0.500000E+02   0.423474E-09   0.777563E-09   0.373529E+00   0.482536E+01
   0.600000E+02   0.656811E-09   0.119013E-08   0.373368E+00   0.482536E+01
   0.700000E+02   0.100088E-08   0.179064E-08   0.373244E+00   0.482536E+01
   0.800000E+02   0.150822E-08   0.265659E-08   0.373116E+00   0.482536E+01
   0.900000E+02   0.225407E-08   0.389003E-08   0.373019E+00   0.482536E+01
   0.100000E+03   0.334110E-08   0.562618E-08   0.372927E+00   0.482536E+01
   0.110000E+03   0.489895E-08   0.803675E-08   0.372844E+00   0.482536E+01
   0.120000E+03   0.706443E-08   0.112902E-07   0.372846E+00   0.482536E+01
   0.130000E+03   0.100302E-07   0.156480E-07   0.372764E+00   0.482536E+01
   0.140000E+03   0.140408E-07   0.214705E-07   0.372611E+00   0.482536E+01
   0.150000E+03   0.193099E-07   0.290607E-07   0.372546E+00   0.482536E+01
   0.160000E+03   0.260841E-07   0.387968E-07   0.372484E+00   0.482536E+01
   0.170000E+03   0.345585E-07   0.509541E-07   0.372487E+00   0.482536E+01
   0.180000E+03   0.450417E-07   0.660301E-07   0.372427E+00   0.482536E+01
   0.190000E+03   0.578214E-07   0.844737E-07   0.372370E+00   0.482536E+01
   0.200000E+03   0.732006E-07   0.106743E-06   0.372316E+00   0.482536E+01
   0.210000E+03   0.914957E-07   0.133300E-06   0.372267E+00   0.482536E+01
   0.220000E+03   0.113025E-06   0.164600E-06   0.372221E+00   0.482536E+01
   0.230000E+03   0.138082E-06   0.201086E-06   0.372179E+00   0.482536E+01
   0.240000E+03   0.166907E-06   0.243182E-06   0.372141E+00   0.482536E+01
   0.250000E+03   0.199660E-06   0.291286E-06   0.372106E+00   0.482536E+01
   0.260000E+03   0.236419E-06   0.345764E-06   0.372074E+00   0.482536E+01
   0.270000E+03   0.277213E-06   0.406947E-06   0.372044E+00   0.482536E+01
   0.280000E+03   0.322024E-06   0.475123E-06   0.372017E+00   0.482536E+01
   0.290000E+03   0.370720E-06   0.550534E-06   0.371993E+00   0.482536E+01
   0.300000E+03   0.422977E-06   0.633373E-06   0.371972E+00   0.482536E+01
   0.310000E+03   0.478224E-06   0.723788E-06   0.371953E+00   0.482536E+01
   0.320000E+03   0.535675E-06   0.821875E-06   0.371937E+00   0.482536E+01
   0.330000E+03   0.594454E-06   0.927685E-06   0.371923E+00   0.482536E+01
   0.340000E+03   0.653690E-06   0.104123E-05   0.371911E+00   0.482536E+01
   0.350000E+03   0.712515E-06   0.116247E-05   0.371902E+00   0.482536E+01
   0.360000E+03   0.770023E-06   0.129134E-05   0.371893E+00   0.482536E+01
   0.370000E+03   0.825254E-06   0.142775E-05   0.371887E+00   0.482536E+01
   0.380000E+03   0.877219E-06   0.157156E-05   0.371882E+00   0.482536E+01
   0.390000E+03   0.924938E-06   0.172262E-05   0.371878E+00   0.482536E+01
   0.400000E+03   0.967505E-06   0.188076E-05   0.371875E+00   0.482536E+01
   0.410000E+03   0.100414E-05   0.204577E-05   0.371874E+00   0.482536E+01
   0.420000E+03   0.103421E-05   0.221745E-05   0.371873E+00   0.482536E+01
   0.430000E+03   0.105727E-05   0.239558E-05   0.371872E+00   0.482536E+01
   0.440000E+03   0.107304E-05   0.257993E-05   0.371872E+00   0.482536E+01
   0.450000E+03   0.108136E-05   0.277022E-05   0.371873E+00   0.482536E+01
   0.460000E+03   0.108217E-05   0.296618E-05   0.371876E+00   0.482536E+01
   0.470000E+03   0.107549E-05   0.316757E-05   0.371876E+00   0.482536E+01
   0.480000E+03   0.106133E-05   0.337418E-05   0.371876E+00   0.482536E+01
   0.490000E+03   0.103959E-05   0.358564E-05   0.371880E+00   0.482536E+01
   0.500000E+03   0.101008E-05   0.380155E-05   0.371887E+00   0.482536E+01
   0.510000E+03   0.972642E-06   0.402182E-05   0.371888E+00   0.482536E+01
   0.520000E+03   0.927142E-06   0.424641E-05   0.371882E+00   0.482536E+01
   0.530000E+03   0.876179E-06   0.447564E-05   0.371890E+00   0.482536E+01
   0.540000E+03   0.817313E-06   0.470823E-05   0.371925E+00   0.482536E+01
   0.550000E+03   0.750815E-06   0.494597E-05   0.371880E+00   0.482536E+01
   0.560000E+03   0.677077E-06   0.518850E-05   0.371893E+00   0.482536E+01
   0.570000E+03   0.596335E-06   0.543589E-05   0.371918E+00   0.482536E+01
   0.580000E+03   0.509562E-06   0.568882E-05   0.371936E+00   0.482536E+01
   0.590000E+03   0.418299E-06   0.594854E-05   0.371929E+00   0.482536E+01
   0.600000E+03   0.323617E-06   0.621517E-05   0.371932E+00   0.482536E+01
   0.610000E+03   0.228424E-06   0.649043E-05   0.371914E+00   0.482536E+01
   0.620000E+03   0.134575E-06   0.677466E-05   0.371926E+00   0.482536E+01
   0.630000E+03   0.430205E-07   0.706705E-05   0.371977E+00   0.482536E+01
   0.640000E+03  -0.435539E-07   0.736928E-05   0.371967E+00   0.482536E+01
   0.650000E+03  -0.122913E-06   0.768181E-05   0.371943E+00   0.482536E+01
   0.660000E+03  -0.195248E-06   0.800257E-05   0.371963E+00   0.482536E+01
   0.670000E+03  -0.258847E-06   0.833117E-05   0.371982E+00   0.482536E+01
   0.680000E+03  -0.310374E-06   0.866864E-05   0.371975E+00   0.482536E+01
   0.690000E+03  -0.350732E-06   0.902852E-05   0.372015E+00   0.482536E+01
   0.700000E+03  -0.377391E-06   0.943576E-05   0.372007E+00   0.482536E+01
   0.710000E+03  -0.387998E-06   0.985459E-05   0.371977E+00   0.482536E+01
   0.720000E+03  -0.384900E-06   0.102807E-04   0.372004E+00   0.482536E+01
   0.730000E+03  -0.367182E-06   0.107132E-04   0.372030E+00   0.482536E+01
   0.740000E+03  -0.332186E-06   0.111529E-04   0.372036E+00   0.482536E+01
   0.750000E+03  -0.281214E-06   0.115972E-04   0.372059E+00   0.482536E+01
   0.760000E+03  -0.212285E-06   0.120468E-04   0.372053E+00   0.482536E+01
   0.770000E+03  -0.122670E-06   0.125034E-04   0.372014E+00   0.482536E+01
   0.780000E+03  -0.176266E-07   0.129616E-04   0.372050E+00   0.482536E+01
   0.790000E+03   0.104011E-06   0.134215E-04   0.372077E+00   0.482536E+01
   0.800000E+03   0.242800E-06   0.138830E-04   0.372094E+00   0.482536E+01
   0.810000E+03   0.398105E-06   0.143449E-04   0.372109E+00   0.482536E+01
   0.820000E+03   0.572066E-06   0.148083E-04   0.372091E+00   0.482536E+01
   0.830000E+03   0.767003E-06   0.152748E-04   0.372055E+00   0.482536E+01
   0.840000E+03   0.976903E-06   0.157403E-04   0.372087E+00   0.482536E+01
   0.850000E+03   0.120284E-05   0.162056E-04   0.372123E+00   0.482536E+01
   0.860000E+03   0.144712E-05   0.166727E-04   0.372130E+00   0.482536E+01
   0.870000E+03   0.170825E-05   0.171409E-04   0.372134E+00   0.482536E+01
   0.880000E+03   0.198817E-05   0.176118E-04   0.372112E+00   0.482536E+01
   0.890000E+03   0.228822E-05   0.180866E-04   0.372101E+00   0.482536E+01
   0.900000E+03   0.260144E-05   0.185616E-04   0.372148E+00   0.482536E+01
   0.910000E+03   0.292925E-05   0.190380E-04   0.372168E+00   0.482536E+01
   0.920000E+03   0.327497E-05   0.195179E-04   0.372151E+00   0.482536E+01
   0.930000E+03   0.363539E-05   0.199990E-04   0.372148E+00   0.482536E+01
   0.940000E+03   0.400862E-05   0.204794E-04   0.372159E+00   0.482536E+01
   0.950000E+03   0.439913E-05   0.209626E-04   0.372145E+00   0.482536E+01
   0.960000E+03   0.480095E-05   0.214458E-04   0.372182E+00   0.482536E+01
   0.970000E+03   0.521471E-05   0.219302E-04   0.372196E+00   0.482536E+01
   0.980000E+03   0.564299E-05   0.224179E-04   0.372181E+00   0.482536E+01
   0.990000E+03   0.608492E-05   0.229082E-04   0.372159E+00   0.482536E+01
   0.100000E+04   0.653309E-05   0.233957E-04   0.372190E+00   0.482536E+01
   0.101000E+04   0.699013E-05   0.238810E-04   0.372203E+00   0.482536E+01
   0.102000E+04   0.745489E-05   0.243631E-04   0.372219E+00   0.482536E+01
   0.103000E+04   0.792537E-05   0.248406E-04   0.372230E+00   0.482536E+01
   0.104000E+04   0.840431E-05   0.253150E-04   0.372210E+00   0.482536E+01
   0.105000E+04   0.889157E-05   0.257863E-04   0.372178E+00   0.482536E+01
   0.106000E+04   0.937825E-05   0.262488E-04   0.372212E+00   0.482536E+01
   0.107000E+04   0.986677E-05   0.267036E-04   0.372237E+00   0.482536E+01
   0.108000E+04   0.103573E-04   0.271508E-04   0.372253E+00   0.482536E+01
   0.109000E+04   0.108498E-04   0.275902E-04   0.372255E+00   0.482536E+01
   0.110000E+04   0.113469E-04   0.280237E-04   0.372224E+00   0.482536E+01
   0.111000E+04   0.118480E-04   0.284511E-04   0.372211E+00   0.482536E+01
   0.112000E+04   0.123473E-04   0.288695E-04   0.372240E+00   0.482536E+01
   0.113000E+04   0.128447E-04   0.292791E-04   0.372274E+00   0.482536E+01
   0.114000E+04   0.133466E-04   0.296844E-04   0.372260E+00   0.482536E+01
   0.115000E+04   0.138526E-04   0.300853E-04   0.372242E+00   0.482536E+01
   0.116000E+04   0.143592E-04   0.304796E-04   0.372246E+00   0.482536E+01
   0.117000E+04   0.148715E-04   0.308712E-04   0.372238E+00   0.482536E+01
   0.118000E+04   0.153876E-04   0.312604E-04   0.372256E+00   0.482536E+01
   0.119000E+04   0.159060E-04   0.316475E-04   0.372282E+00   0.482536E+01
   0.120000E+04   0.164306E-04   0.320355E-04   0.372276E+00   0.482536E+01
   0.121000E+04   0.169663E-04   0.324279E-04   0.372234E+00   0.482536E+01
   0.122000E+04   0.175038E-04   0.328189E-04   0.372250E+00   0.482536E+01
   0.123000E+04   0.180432E-04   0.332074E-04   0.372276E+00   0.482536E+01
   0.124000E+04   0.185849E-04   0.335930E-04   0.372298E+00   0.482536E+01
   0.125000E+04   0.191290E-04   0.339749E-04   0.372307E+00   0.482536E+01
   0.126000E+04   0.196769E-04   0.343533E-04   0.372286E+00   0.482536E+01
   0.127000E+04   0.202304E-04   0.347288E-04   0.372255E+00   0.482536E+01
   0.128000E+04   0.207849E-04   0.350989E-04   0.372265E+00   0.482536E+01
   0.129000E+04   0.213366E-04   0.354610E-04   0.372306E+00   0.482536E+01
   0.130000E+04   0.218902E-04   0.358189E-04   0.372307E+00   0.482536E+01
   0.131000E+04   0.224458E-04   0.361725E-04   0.372300E+00   0.482536E+01
   0.132000E+04   0.230039E-04   0.365224E-04   0.372282E+00   0.482536E+01
   0.133000E+04   0.235678E-04   0.368718E-04   0.372261E+00   0.482536E+01
   0.134000E+04   0.241350E-04   0.372211E-04   0.372276E+00   0.482536E+01
   0.135000E+04   0.247028E-04   0.375696E-04   0.372319E+00   0.482536E+01
   0.136000E+04   0.252770E-04   0.379209E-04   0.372320E+00   0.482536E+01
   0.137000E+04   0.258627E-04   0.382787E-04   0.372277E+00   0.482536E+01
   0.138000E+04   0.264520E-04   0.386619E-04   0.372277E+00   0.482536E+01
   0.139000E+04   0.270427E-04   0.391375E-04   0.372300E+00   0.482536E+01
   0.140000E+04   0.276347E-04   0.396112E-04   0.372325E+00   0.482536E+01
   0.141000E+04   0.282288E-04   0.400834E-04   0.372336E+00   0.482536E+01
   0.142000E+04   0.288256E-04   0.405545E-04   0.372323E+00   0.482536E+01
   0.143000E+04   0.294277E-04   0.410268E-04   0.372286E+00   0.482536E+01
   0.144000E+04   0.300295E-04   0.414933E-04   0.372293E+00   0.482536E+01
   0.145000E+04   0.306262E-04   0.419489E-04   0.372335E+00   0.482536E+01
   0.146000E+04   0.312214E-04   0.423979E-04   0.372345E+00   0.482536E+01
   0.147000E+04   0.318191E-04   0.428451E-04   0.372322E+00   0.482536E+01
   0.148000E+04   0.324189E-04   0.432896E-04   0.372295E+00   0.482536E+01
   0.149000E+04   0.330148E-04   0.437244E-04   0.372317E+00   0.482536E+01
   0.150000E+04   0.336125E-04   0.441564E-04   0.372314E+00   0.482536E+01
   0.151000E+04   0.342104E-04   0.445842E-04   0.372338E+00   0.482536E+01
   0.152000E+04   0.348098E-04   0.450099E-04   0.372346E+00   0.482536E+01
   0.153000E+04   0.354139E-04   0.454373E-04   0.372330E+00   0.482536E+01
   0.154000E+04   0.360270E-04   0.458722E-04   0.372282E+00   0.482536E+01
   0.155000E+04   0.366418E-04   0.463054E-04   0.372298E+00   0.482536E+01
   0.156000E+04   0.372592E-04   0.467388E-04   0.372327E+00   0.482536E+01
   0.157000E+04   0.378815E-04   0.471756E-04   0.372344E+00   0.482536E+01
   0.158000E+04   0.385088E-04   0.476156E-04   0.372352E+00   0.482536E+01
   0.159000E+04   0.391446E-04   0.480628E-04   0.372321E+00   0.482536E+01
   0.160000E+04   0.397918E-04   0.485207E-04   0.372280E+00   0.482536E+01
   0.161000E+04   0.404403E-04   0.489772E-04   0.372324E+00   0.482536E+01
   0.162000E+04   0.410925E-04   0.494358E-04   0.372356E+00   0.482536E+01
   0.163000E+04   0.417531E-04   0.499022E-04   0.372349E+00   0.482536E+01
   0.164000E+04   0.424254E-04   0.503801E-04   0.372305E+00   0.482536E+01
   0.165000E+04   0.431015E-04   0.508591E-04   0.372311E+00   0.482536E+01
   0.166000E+04   0.437797E-04   0.513371E-04   0.372332E+00   0.482536E+01
   0.167000E+04   0.444593E-04   0.518133E-04   0.372355E+00   0.482536E+01
   0.168000E+04   0.451405E-04   0.522878E-04   0.372363E+00   0.482536E+01
   0.169000E+04   0.458255E-04   0.527626E-04   0.372338E+00   0.482536E+01
   0.170000E+04   0.465157E-04   0.532391E-04   0.372300E+00   0.482536E+01
   0.171000E+04   0.472052E-04   0.537102E-04   0.372317E+00   0.482536E+01
   0.172000E+04   0.478911E-04   0.541728E-04   0.372362E+00   0.482536E+01
   0.173000E+04   0.485768E-04   0.546313E-04   0.372373E+00   0.482536E+01
   0.174000E+04   0.492664E-04   0.550904E-04   0.372337E+00   0.482536E+01
   0.175000E+04   0.499583E-04   0.556407E-04   0.372306E+00   0.482536E+01
   0.176000E+04   0.506469E-04   0.573657E-04   0.372326E+00   0.482536E+01
   0.177000E+04   0.513344E-04   0.591008E-04   0.372342E+00   0.482536E+01
   0.178000E+04   0.520210E-04   0.608457E-04   0.372361E+00   0.482536E+01
   0.179000E+04   0.527083E-04   0.626025E-04   0.372367E+00   0.482536E+01
   0.180000E+04   0.534012E-04   0.643750E-04   0.372324E+00   0.482536E+01
   0.181000E+04   0.540978E-04   0.661602E-04   0.372301E+00   0.482536E+01
   0.182000E+04   0.547948E-04   0.679539E-04   0.372322E+00   0.482536E+01
   0.183000E+04   0.554921E-04   0.697546E-04   0.372357E+00   0.482536E+01
   0.184000E+04   0.561954E-04   0.715662E-04   0.372352E+00   0.482536E+01
   0.185000E+04   0.569062E-04   0.733907E-04   0.372330E+00   0.482536E+01
   0.186000E+04   0.576223E-04   0.752267E-04   0.372322E+00   0.482536E+01
   0.187000E+04   0.583465E-04   0.770731E-04   0.372304E+00   0.482536E+01
   0.188000E+04   0.590750E-04   0.789267E-04   0.372337E+00   0.482536E+01
   0.189000E+04   0.598099E-04   0.807891E-04   0.372355E+00   0.482536E+01
   0.190000E+04   0.605538E-04   0.826629E-04   0.372346E+00   0.482536E+01
   0.191000E+04   0.613098E-04   0.845498E-04   0.372298E+00   0.482536E+01
   0.192000E+04   0.620726E-04   0.864470E-04   0.372300E+00   0.482536E+01
   0.193000E+04   0.628401E-04   0.883515E-04   0.372327E+00   0.482536E+01
   0.194000E+04   0.636120E-04   0.902624E-04   0.372353E+00   0.482536E+01
   0.195000E+04   0.643892E-04   0.921823E-04   0.372362E+00   0.482536E+01
   0.196000E+04   0.651739E-04   0.941137E-04   0.372326E+00   0.482536E+01
   0.197000E+04   0.659672E-04   0.960560E-04   0.372279E+00   0.482536E+01
   0.198000E+04   0.667619E-04   0.980048E-04   0.372319E+00   0.482536E+01
   0.199000E+04   0.675588E-04   0.999607E-04   0.372357E+00   0.482536E+01
   0.200000E+04   0.683606E-04   0.101926E-03   0.372360E+00   0.482536E+01
   0.201000E+04   0.691704E-04   0.103902E-03   0.372311E+00   0.482536E+01
   0.202000E+04   0.699829E-04   0.105888E-03   0.372301E+00   0.482536E+01
   0.203000E+04   0.707949E-04   0.107881E-03   0.372320E+00   0.482536E+01
   0.204000E+04   0.716054E-04   0.109878E-03   0.372348E+00   0.482536E+01
   0.205000E+04   0.724159E-04   0.111882E-03   0.372358E+00   0.482536E+01
   0.206000E+04   0.732290E-04   0.113895E-03   0.372329E+00   0.482536E+01
   0.207000E+04   0.740459E-04   0.115916E-03   0.372286E+00   0.482536E+01
   0.208000E+04   0.748612E-04   0.117944E-03   0.372314E+00   0.482536E+01
   0.209000E+04   0.756740E-04   0.119977E-03   0.372355E+00   0.482536E+01
   0.210000E+04   0.764868E-04   0.122016E-03   0.372363E+00   0.482536E+01
   0.211000E+04   0.773034E-04   0.124064E-03   0.372312E+00   0.482536E+01
   0.212000E+04   0.781207E-04   0.126119E-03   0.372292E+00   0.482536E+01
   0.213000E+04   0.789358E-04   0.128179E-03   0.372310E+00   0.482536E+01
   0.214000E+04   0.797479E-04   0.130241E-03   0.372344E+00   0.482536E+01
   0.215000E+04   0.805590E-04   0.132306E-03   0.372354E+00   0.482536E+01
   0.216000E+04   0.813705E-04   0.134376E-03   0.372336E+00   0.482536E+01
   0.217000E+04   0.821842E-04   0.136453E-03   0.372293E+00   0.482536E+01
   0.218000E+04   0.829984E-04   0.138533E-03   0.372285E+00   0.482536E+01
   0.219000E+04   0.838098E-04   0.140614E-03   0.372334E+00   0.482536E+01
   0.220000E+04   0.846222E-04   0.142699E-03   0.372352E+00   0.482536E+01
   0.221000E+04   0.854384E-04   0.144788E-03   0.372327E+00   0.482536E+01
   0.222000E+04   0.862583E-04   0.146883E-03   0.372292E+00   0.482536E+01
   0.223000E+04   0.870782E-04   0.148981E-03   0.372301E+00   0.482536E+01
   0.224000E+04   0.878961E-04   0.151079E-03   0.372326E+00   0.482536E+01
   0.225000E+04   0.887129E-04   0.153177E-03   0.372340E+00   0.482536E+01
   0.226000E+04   0.895292E-04   0.155277E-03   0.372344E+00   0.482536E+01
   0.227000E+04   0.903478E-04   0.157379E-03   0.372305E+00   0.482536E+01
   0.228000E+04   0.911693E-04   0.159480E-03   0.372267E+00   0.482536E+01
   0.229000E+04   0.919894E-04   0.161582E-03   0.372315E+00   0.482536E+01
   0.230000E+04   0.928105E-04   0.163685E-03   0.372346E+00   0.482536E+01
   0.231000E+04   0.936348E-04   0.165790E-03   0.372342E+00   0.482536E+01
   0.232000E+04   0.944642E-04   0.167896E-03   0.372289E+00   0.482536E+01
   0.233000E+04   0.952958E-04   0.170005E-03   0.372281E+00   0.482536E+01
   0.234000E+04   0.961269E-04   0.172113E-03   0.372305E+00   0.482536E+01
   0.235000E+04   0.969571E-04   0.174219E-03   0.372336E+00   0.482536E+01
   0.236000E+04   0.977874E-04   0.176325E-03   0.372349E+00   0.482536E+01
   0.237000E+04   0.986198E-04   0.178431E-03   0.372311E+00   0.482536E+01
   0.238000E+04   0.994543E-04   0.180536E-03   0.372264E+00   0.482536E+01
   0.239000E+04   0.100287E-03   0.182641E-03   0.372300E+00   0.482536E+01
   0.240000E+04   0.101118E-03   0.184746E-03   0.372335E+00   0.482536E+01
   0.241000E+04   0.101949E-03   0.186850E-03   0.372341E+00   0.482536E+01
   0.242000E+04   0.102783E-03   0.188952E-03   0.372291E+00   0.482536E+01
   0.243000E+04   0.103616E-03   0.191055E-03   0.372279E+00   0.482536E+01
   0.244000E+04   0.104446E-03   0.193156E-03   0.372298E+00   0.482536E+01
   0.245000E+04   0.105272E-03   0.195252E-03   0.372328E+00   0.482536E+01
   0.246000E+04   0.106096E-03   0.197344E-03   0.372339E+00   0.482536E+01
   0.247000E+04   0.106920E-03   0.199434E-03   0.372304E+00   0.482536E+01
   0.248000E+04   0.107744E-03   0.201519E-03   0.372260E+00   0.482536E+01
   0.249000E+04   0.108565E-03   0.203604E-03   0.372289E+00   0.482536E+01
   0.250000E+04   0.109385E-03   0.205686E-03   0.372331E+00   0.482536E+01
   0.251000E+04   0.110204E-03   0.207767E-03   0.372342E+00   0.482536E+01
   0.252000E+04   0.111023E-03   0.209844E-03   0.372293E+00   0.482536E+01
   0.253000E+04   0.111842E-03   0.211919E-03   0.372268E+00   0.482536E+01
   0.254000E+04   0.112657E-03   0.213991E-03   0.372283E+00   0.482536E+01
   0.255000E+04   0.113467E-03   0.216056E-03   0.372318E+00   0.482536E+01
   0.256000E+04   0.114273E-03   0.218114E-03   0.372333E+00   0.482536E+01
   0.257000E+04   0.115078E-03   0.220168E-03   0.372309E+00   0.482536E+01
   0.258000E+04   0.115883E-03   0.222216E-03   0.372267E+00   0.482536E+01
   0.259000E+04   0.116684E-03   0.224261E-03   0.372270E+00   0.482536E+01
   0.260000E+04   0.117482E-03   0.226301E-03   0.372315E+00   0.482536E+01
   0.261000E+04   0.118278E-03   0.228338E-03   0.372330E+00   0.482536E+01
   0.262000E+04   0.119073E-03   0.230369E-03   0.372298E+00   0.482536E+01
   0.263000E+04   0.119868E-03   0.232395E-03   0.372267E+00   0.482536E+01
   0.264000E+04   0.120660E-03   0.234417E-03   0.372276E+00   0.482536E+01
   0.265000E+04   0.121445E-03   0.236432E-03   0.372310E+00   0.482536E+01
   0.266000E+04   0.122227E-03   0.238436E-03   0.372320E+00   0.482536E+01
   0.267000E+04   0.123005E-03   0.240436E-03   0.372314E+00   0.482536E+01
   0.268000E+04   0.123781E-03   0.242428E-03   0.372275E+00   0.482536E+01
   0.269000E+04   0.124554E-03   0.244408E-03   0.372243E+00   0.482536E+01
   0.270000E+04   0.125324E-03   0.246382E-03   0.372295E+00   0.482536E+01
   0.271000E+04   0.126094E-03   0.248351E-03   0.372322E+00   0.482536E+01
   0.272000E+04   0.126866E-03   0.250315E-03   0.372316E+00   0.482536E+01
   0.273000E+04   0.127638E-03   0.252272E-03   0.372267E+00   0.482536E+01
   0.274000E+04   0.128411E-03   0.254225E-03   0.372256E+00   0.482536E+01
   0.275000E+04   0.129181E-03   0.256172E-03   0.372283E+00   0.482536E+01
   0.276000E+04   0.129948E-03   0.258110E-03   0.372311E+00   0.482536E+01
   0.277000E+04   0.130714E-03   0.260041E-03   0.372323E+00   0.482536E+01
   0.278000E+04   0.131479E-03   0.261964E-03   0.372285E+00   0.482536E+01
   0.279000E+04   0.132242E-03   0.263875E-03   0.372242E+00   0.482536E+01
   0.280000E+04   0.133003E-03   0.265783E-03   0.372277E+00   0.482536E+01
   0.281000E+04   0.133762E-03   0.267689E-03   0.372310E+00   0.482536E+01
   0.282000E+04   0.134520E-03   0.269588E-03   0.372316E+00   0.482536E+01
   0.283000E+04   0.135277E-03   0.271477E-03   0.372267E+00   0.482536E+01
   0.284000E+04   0.136032E-03   0.273360E-03   0.372253E+00   0.482536E+01
   0.285000E+04   0.136784E-03   0.275238E-03   0.372275E+00   0.482536E+01
   0.286000E+04   0.137529E-03   0.277106E-03   0.372308E+00   0.482536E+01
   0.287000E+04   0.138271E-03   0.278967E-03   0.372320E+00   0.482536E+01
   0.288000E+04   0.139010E-03   0.280818E-03   0.372278E+00   0.482536E+01
   0.289000E+04   0.139745E-03   0.282658E-03   0.372236E+00   0.482536E+01
   0.290000E+04   0.140478E-03   0.284494E-03   0.372268E+00   0.482536E+01
   0.291000E+04   0.141207E-03   0.286326E-03   0.372308E+00   0.482536E+01
   0.292000E+04   0.141933E-03   0.288152E-03   0.372321E+00   0.482536E+01
   0.293000E+04   0.142657E-03   0.289966E-03   0.372270E+00   0.482536E+01
   0.294000E+04   0.143377E-03   0.291775E-03   0.372246E+00   0.482536E+01
   0.295000E+04   0.144092E-03   0.293577E-03   0.372262E+00   0.482536E+01
   0.296000E+04   0.144800E-03   0.295369E-03   0.372297E+00   0.482536E+01
   0.297000E+04   0.145503E-03   0.297150E-03   0.372315E+00   0.482536E+01
   0.298000E+04   0.146202E-03   0.298921E-03   0.372281E+00   0.482536E+01
   0.299000E+04   0.146899E-03   0.300679E-03   0.372240E+00   0.482536E+01
   0.300000E+04   0.147592E-03   0.302434E-03   0.372260E+00   0.482536E+01
   0.301000E+04   0.148282E-03   0.304185E-03   0.372299E+00   0.482536E+01
   0.302000E+04   0.148968E-03   0.305930E-03   0.372311E+00   0.482536E+01
   0.303000E+04   0.149652E-03   0.307663E-03   0.372267E+00   0.482536E+01
   0.304000E+04   0.150333E-03   0.309388E-03   0.372242E+00   0.482536E+01
   0.305000E+04   0.151009E-03   0.311106E-03   0.372258E+00   0.482536E+01
   0.306000E+04   0.151679E-03   0.312813E-03   0.372296E+00   0.482536E+01
   0.307000E+04   0.152343E-03   0.314510E-03   0.372311E+00   0.482536E+01
   0.308000E+04   0.153004E-03   0.316197E-03   0.372278E+00   0.482536E+01
   0.309000E+04   0.153662E-03   0.317873E-03   0.372238E+00   0.482536E+01
   0.310000E+04   0.154316E-03   0.319543E-03   0.372242E+00   0.482536E+01
   0.311000E+04   0.154965E-03   0.321205E-03   0.372291E+00   0.482536E+01
   0.312000E+04   0.155612E-03   0.322861E-03   0.372311E+00   0.482536E+01
   0.313000E+04   0.156256E-03   0.324506E-03   0.372278E+00   0.482536E+01
   0.314000E+04   0.156897E-03   0.326142E-03   0.372242E+00   0.482536E+01
   0.315000E+04   0.157534E-03   0.327773E-03   0.372244E+00   0.482536E+01
   0.316000E+04   0.158165E-03   0.329393E-03   0.372280E+00   0.482536E+01
   0.317000E+04   0.158789E-03   0.331000E-03   0.372297E+00   0.482536E+01
   0.318000E+04   0.159410E-03   0.332598E-03   0.372290E+00   0.482536E+01
   0.319000E+04   0.160027E-03   0.334184E-03   0.372254E+00   0.482536E+01
   0.320000E+04   0.160640E-03   0.335753E-03   0.372225E+00   0.482536E+01
   0.321000E+04   0.161249E-03   0.337318E-03   0.372272E+00   0.482536E+01
   0.322000E+04   0.161858E-03   0.338878E-03   0.372295E+00   0.482536E+01
   0.323000E+04   0.162466E-03   0.340430E-03   0.372287E+00   0.482536E+01
   0.324000E+04   0.163074E-03   0.341970E-03   0.372241E+00   0.482536E+01
   0.325000E+04   0.163681E-03   0.343503E-03   0.372234E+00   0.482536E+01
   0.326000E+04   0.164285E-03   0.345029E-03   0.372266E+00   0.482536E+01
   0.327000E+04   0.164886E-03   0.346546E-03   0.372292E+00   0.482536E+01
   0.328000E+04   0.165485E-03   0.348055E-03   0.372299E+00   0.482536E+01
   0.329000E+04   0.166082E-03   0.349552E-03   0.372254E+00   0.482536E+01
   0.330000E+04   0.166676E-03   0.351035E-03   0.372216E+00   0.482536E+01
   0.331000E+04   0.167268E-03   0.352514E-03   0.372253E+00   0.482536E+01
   0.332000E+04   0.167860E-03   0.353990E-03   0.372290E+00   0.482536E+01
   0.333000E+04   0.168450E-03   0.355459E-03   0.372299E+00   0.482536E+01
   0.334000E+04   0.169039E-03   0.356915E-03   0.372249E+00   0.482536E+01
   0.335000E+04   0.169626E-03   0.358366E-03   0.372229E+00   0.482536E+01
   0.336000E+04   0.170210E-03   0.359811E-03   0.372247E+00   0.482536E+01
   0.337000E+04   0.170789E-03   0.361249E-03   0.372281E+00   0.482536E+01
   0.338000E+04   0.171364E-03   0.362677E-03   0.372297E+00   0.482536E+01
   0.339000E+04   0.171936E-03   0.364092E-03   0.372259E+00   0.482536E+01
   0.340000E+04   0.172505E-03   0.365495E-03   0.372222E+00   0.482536E+01
   0.341000E+04   0.173072E-03   0.366896E-03   0.372247E+00   0.482536E+01
   0.342000E+04   0.173636E-03   0.368294E-03   0.372284E+00   0.482536E+01
   0.343000E+04   0.174196E-03   0.369688E-03   0.372295E+00   0.482536E+01
   0.344000E+04   0.174754E-03   0.371067E-03   0.372246E+00   0.482536E+01
   0.345000E+04   0.175308E-03   0.372439E-03   0.372224E+00   0.482536E+01
   0.346000E+04   0.175857E-03   0.373805E-03   0.372243E+00   0.482536E+01
   0.347000E+04   0.176400E-03   0.375160E-03   0.372281E+00   0.482536E+01
   0.348000E+04   0.176938E-03   0.376507E-03   0.372298E+00   0.482536E+01
   0.349000E+04   0.177472E-03   0.377842E-03   0.372257E+00   0.482536E+01
   0.350000E+04   0.178003E-03   0.379165E-03   0.372216E+00   0.482536E+01
   0.351000E+04   0.178531E-03   0.380485E-03   0.372235E+00   0.482536E+01
   0.352000E+04   0.179056E-03   0.381801E-03   0.372278E+00   0.482536E+01
   0.353000E+04   0.179579E-03   0.383112E-03   0.372297E+00   0.482536E+01
   0.354000E+04   0.180098E-03   0.384408E-03   0.372253E+00   0.482536E+01
   0.355000E+04   0.180613E-03   0.385698E-03   0.372225E+00   0.482536E+01
   0.356000E+04   0.181125E-03   0.386984E-03   0.372235E+00   0.482536E+01
   0.357000E+04   0.181630E-03   0.388260E-03   0.372271E+00   0.482536E+01
   0.358000E+04   0.182129E-03   0.389526E-03   0.372290E+00   0.482536E+01
   0.359000E+04   0.182625E-03   0.390779E-03   0.372258E+00   0.482536E+01
   0.360000E+04   0.183118E-03   0.392020E-03   0.372223E+00   0.482536E+01
   0.361000E+04   0.183607E-03   0.393257E-03   0.372231E+00   0.482536E+01
   0.362000E+04   0.184093E-03   0.394491E-03   0.372275E+00   0.482536E+01
   0.363000E+04   0.184576E-03   0.395719E-03   0.372290E+00   0.482536E+01
   0.364000E+04   0.185055E-03   0.396936E-03   0.372251E+00   0.482536E+01
   0.365000E+04   0.185531E-03   0.398143E-03   0.372220E+00   0.482536E+01
   0.366000E+04   0.186003E-03   0.399344E-03   0.372228E+00   0.482536E+01
   0.367000E+04   0.186468E-03   0.400536E-03   0.372270E+00   0.482536E+01
   0.368000E+04   0.186928E-03   0.401715E-03   0.372288E+00   0.482536E+01
   0.369000E+04   0.187384E-03   0.402886E-03   0.372267E+00   0.482536E+01
   0.370000E+04   0.187837E-03   0.404048E-03   0.372229E+00   0.482536E+01
   0.371000E+04   0.188285E-03   0.405196E-03   0.372207E+00   0.482536E+01
   0.372000E+04   0.188729E-03   0.406339E-03   0.372258E+00   0.482536E+01
   0.373000E+04   0.189172E-03   0.407476E-03   0.372283E+00   0.482536E+01
   0.374000E+04   0.189613E-03   0.408605E-03   0.372271E+00   0.482536E+01
   0.375000E+04   0.190053E-03   0.409722E-03   0.372228E+00   0.482536E+01
   0.376000E+04   0.190490E-03   0.410833E-03   0.372218E+00   0.482536E+01
   0.377000E+04   0.190924E-03   0.411940E-03   0.372250E+00   0.482536E+01
   0.378000E+04   0.191355E-03   0.413037E-03   0.372272E+00   0.482536E+01
   0.379000E+04   0.191783E-03   0.414126E-03   0.372279E+00   0.482536E+01
   0.380000E+04   0.192208E-03   0.415200E-03   0.372238E+00   0.482536E+01
   0.381000E+04   0.192629E-03   0.416259E-03   0.372207E+00   0.482536E+01
   0.382000E+04   0.193050E-03   0.417317E-03   0.372244E+00   0.482536E+01
   0.383000E+04   0.193472E-03   0.418374E-03   0.372274E+00   0.482536E+01
   0.384000E+04   0.193893E-03   0.419427E-03   0.372278E+00   0.482536E+01
   0.385000E+04   0.194313E-03   0.420465E-03   0.372227E+00   0.482536E+01
   0.386000E+04   0.194732E-03   0.421497E-03   0.372210E+00   0.482536E+01
   0.387000E+04   0.195149E-03   0.422526E-03   0.372238E+00   0.482536E+01
   0.388000E+04   0.195564E-03   0.423549E-03   0.372273E+00   0.482536E+01
   0.389000E+04   0.195977E-03   0.424566E-03   0.372286E+00   0.482536E+01
   0.390000E+04   0.196386E-03   0.425570E-03   0.372241E+00   0.482536E+01
   0.391000E+04   0.196794E-03   0.426564E-03   0.372204E+00   0.482536E+01
   0.392000E+04   0.197199E-03   0.427557E-03   0.372228E+00   0.482536E+01
   0.393000E+04   0.197602E-03   0.428548E-03   0.372268E+00   0.482536E+01