title="breakthrough data set at     5 wells"
variables="time(days)","cavg","cpk","upk","zswi"
zone i=     1295
   0.100000E+02   0.844168E-09   0.184225E-08   0.455781E+00   0.485546E+01
   0.200000E+02   0.190713E-08   0.416009E-08   0.373694E+00   0.483384E+01
   0.300000E+02   0.363376E-08   0.784364E-08   0.373028E+00   0.483384E+01
   0.400000E+02   0.629957E-08   0.134203E-07   0.372844E+00   0.483384E+01
   0.500000E+02   0.102862E-07   0.216194E-07   0.372763E+00   0.483384E+01
   0.600000E+02   0.161196E-07   0.334451E-07   0.372708E+00   0.483384E+01
   0.700000E+02   0.244890E-07   0.502036E-07   0.372679E+00   0.483384E+01
   0.800000E+02   0.362480E-07   0.734902E-07   0.372701E+00   0.483384E+01
   0.900000E+02   0.524211E-07   0.105186E-06   0.372734E+00   0.483384E+01
   0.100000E+03   0.741810E-07   0.147393E-06   0.372775E+00   0.483384E+01
   0.110000E+03   0.102819E-06   0.202362E-06   0.372821E+00   0.483384E+01
   0.120000E+03   0.139699E-06   0.272364E-06   0.372819E+00   0.483384E+01
   0.130000E+03   0.186184E-06   0.359562E-06   0.372871E+00   0.483384E+01
   0.140000E+03   0.243651E-06   0.466038E-06   0.372924E+00   0.483384E+01
   0.150000E+03   0.313431E-06   0.593687E-06   0.372979E+00   0.483384E+01
   0.160000E+03   0.396784E-06   0.744178E-06   0.373033E+00   0.483384E+01
   0.170000E+03   0.494868E-06   0.918921E-06   0.373088E+00   0.483384E+01
   0.180000E+03   0.608718E-06   0.111904E-05   0.373141E+00   0.483384E+01
   0.190000E+03   0.739235E-06   0.134539E-05   0.373194E+00   0.483384E+01
   0.200000E+03   0.887168E-06   0.159850E-05   0.373246E+00   0.483384E+01
   0.210000E+03   0.105311E-05   0.187866E-05   0.373297E+00   0.483384E+01
   0.220000E+03   0.123750E-05   0.218588E-05   0.373346E+00   0.483384E+01
   0.230000E+03   0.144062E-05   0.251993E-05   0.373393E+00   0.483384E+01
   0.240000E+03   0.166260E-05   0.288037E-05   0.373440E+00   0.483384E+01
   0.250000E+03   0.190344E-05   0.326654E-05   0.373485E+00   0.483384E+01
   0.260000E+03   0.216298E-05   0.367764E-05   0.373529E+00   0.483384E+01
   0.270000E+03   0.244096E-05   0.411272E-05   0.373572E+00   0.483384E+01
   0.280000E+03   0.273701E-05   0.457070E-05   0.373615E+00   0.483384E+01
   0.290000E+03   0.305065E-05   0.505045E-05   0.373656E+00   0.483384E+01
   0.300000E+03   0.338131E-05   0.555072E-05   0.373697E+00   0.483384E+01
   0.310000E+03   0.372836E-05   0.607024E-05   0.373737E+00   0.483384E+01
   0.320000E+03   0.409109E-05   0.660770E-05   0.373776E+00   0.483384E+01
   0.330000E+03   0.446873E-05   0.716177E-05   0.373814E+00   0.483384E+01
   0.340000E+03   0.486046E-05   0.773111E-05   0.373851E+00   0.483384E+01
   0.350000E+03   0.526542E-05   0.831437E-05   0.373887E+00   0.483384E+01
   0.360000E+03   0.568270E-05   0.891023E-05   0.373923E+00   0.483384E+01
   0.370000E+03   0.611140E-05   0.951738E-05   0.373957E+00   0.483384E+01
   0.380000E+03   0.655056E-05   0.101345E-04   0.373991E+00   0.483384E+01
   0.390000E+03   0.699924E-05   0.107605E-04   0.374023E+00   0.483384E+01
   0.400000E+03   0.745648E-05   0.113940E-04   0.374055E+00   0.483384E+01
   0.410000E+03   0.792131E-05   0.120338E-04   0.374086E+00   0.483384E+01
   0.420000E+03   0.839278E-05   0.126790E-04   0.374117E+00   0.483384E+01
   0.430000E+03   0.886993E-05   0.133284E-04   0.374146E+00   0.483384E+01
   0.440000E+03   0.935182E-05   0.139809E-04   0.374175E+00   0.483384E+01
   0.450000E+03   0.983753E-05   0.146356E-04   0.374203E+00   0.483384E+01
   0.460000E+03   0.103262E-04   0.152916E-04   0.374231E+00   0.483384E+01
   0.470000E+03   0.108169E-04   0.159479E-04   0.374257E+00   0.483384E+01
   0.480000E+03   0.113088E-04   0.166039E-04   0.374283E+00   0.483384E+01
   0.490000E+03   0.118011E-04   0.172586E-04   0.374308E+00   0.483384E+01
   0.500000E+03   0.122930E-04   0.179114E-04   0.374332E+00   0.483384E+01
   0.510000E+03   0.127838E-04   0.185616E-04   0.374355E+00   0.483384E+01
   0.520000E+03   0.132728E-04   0.192086E-04   0.374378E+00   0.483384E+01
   0.530000E+03   0.137593E-04   0.198518E-04   0.374400E+00   0.483384E+01
   0.540000E+03   0.142428E-04   0.204906E-04   0.374421E+00   0.483384E+01
   0.550000E+03   0.147225E-04   0.211245E-04   0.374442E+00   0.483384E+01
   0.560000E+03   0.151979E-04   0.217532E-04   0.374461E+00   0.483384E+01
   0.570000E+03   0.156686E-04   0.223762E-04   0.374481E+00   0.483384E+01
   0.580000E+03   0.161340E-04   0.229931E-04   0.374499E+00   0.483384E+01
   0.590000E+03   0.165937E-04   0.236035E-04   0.374517E+00   0.483384E+01
   0.600000E+03   0.170473E-04   0.242073E-04   0.374535E+00   0.483384E+01
   0.610000E+03   0.174945E-04   0.248040E-04   0.374552E+00   0.483384E+01
   0.620000E+03   0.179348E-04   0.253935E-04   0.374568E+00   0.483384E+01
   0.630000E+03   0.183680E-04   0.259756E-04   0.374584E+00   0.483384E+01
   0.640000E+03   0.187938E-04   0.265500E-04   0.374599E+00   0.483384E+01
   0.650000E+03   0.192120E-04   0.271167E-04   0.374614E+00   0.483384E+01
   0.660000E+03   0.196222E-04   0.276753E-04   0.374629E+00   0.483384E+01
   0.670000E+03   0.200244E-04   0.282259E-04   0.374643E+00   0.483384E+01
   0.680000E+03   0.204182E-04   0.287684E-04   0.374656E+00   0.483384E+01
   0.690000E+03   0.208036E-04   0.293026E-04   0.374670E+00   0.483384E+01
   0.700000E+03   0.211805E-04   0.298284E-04   0.374682E+00   0.483384E+01
   0.710000E+03   0.215486E-04   0.303459E-04   0.374695E+00   0.483384E+01
   0.720000E+03   0.219079E-04   0.308549E-04   0.374707E+00   0.483384E+01
   0.730000E+03   0.222582E-04   0.313555E-04   0.374718E+00   0.483384E+01
   0.740000E+03   0.225996E-04   0.318477E-04   0.374729E+00   0.483384E+01
   0.750000E+03   0.229319E-04   0.323314E-04   0.374740E+00   0.483384E+01
   0.760000E+03   0.232552E-04   0.328066E-04   0.374750E+00   0.483384E+01
   0.770000E+03   0.235694E-04   0.332735E-04   0.374760E+00   0.483384E+01
   0.780000E+03   0.238746E-04   0.337319E-04   0.374769E+00   0.483384E+01
   0.790000E+03   0.241707E-04   0.341819E-04   0.374779E+00   0.483384E+01
   0.800000E+03   0.244579E-04   0.346237E-04   0.374788E+00   0.483384E+01
   0.810000E+03   0.247362E-04   0.350573E-04   0.374796E+00   0.483384E+01
   0.820000E+03   0.250057E-04   0.354826E-04   0.374805E+00   0.483384E+01
   0.830000E+03   0.252665E-04   0.358999E-04   0.374813E+00   0.483384E+01
   0.840000E+03   0.255187E-04   0.363092E-04   0.374821E+00   0.483384E+01
   0.850000E+03   0.257624E-04   0.367105E-04   0.374829E+00   0.483384E+01
   0.860000E+03   0.259977E-04   0.371040E-04   0.374837E+00   0.483384E+01
   0.870000E+03   0.262247E-04   0.374898E-04   0.374845E+00   0.483384E+01
   0.880000E+03   0.264436E-04   0.378680E-04   0.374853E+00   0.483384E+01
   0.890000E+03   0.266545E-04   0.382387E-04   0.374860E+00   0.483384E+01
   0.900000E+03   0.268576E-04   0.386020E-04   0.374868E+00   0.483384E+01
   0.910000E+03   0.270529E-04   0.389579E-04   0.374876E+00   0.483384E+01
   0.920000E+03   0.272405E-04   0.393067E-04   0.374884E+00   0.483384E+01
   0.930000E+03   0.274207E-04   0.396485E-04   0.374891E+00   0.483384E+01
   0.940000E+03   0.275936E-04   0.399833E-04   0.374898E+00   0.483384E+01
   0.950000E+03   0.277594E-04   0.403114E-04   0.374906E+00   0.483384E+01
   0.960000E+03   0.279181E-04   0.406327E-04   0.374915E+00   0.483384E+01
   0.970000E+03   0.280700E-04   0.409476E-04   0.374922E+00   0.483384E+01
   0.980000E+03   0.282153E-04   0.412560E-04   0.374929E+00   0.483384E+01
   0.990000E+03   0.283541E-04   0.415581E-04   0.374937E+00   0.483384E+01
   0.100000E+04   0.284867E-04   0.418541E-04   0.374945E+00   0.483384E+01
   0.101000E+04   0.286133E-04   0.421440E-04   0.374952E+00   0.483384E+01
   0.102000E+04   0.287342E-04   0.424281E-04   0.374958E+00   0.483384E+01
   0.103000E+04   0.288497E-04   0.427063E-04   0.374965E+00   0.483384E+01
   0.104000E+04   0.289599E-04   0.429789E-04   0.374972E+00   0.483384E+01
   0.105000E+04   0.290651E-04   0.432460E-04   0.374978E+00   0.483384E+01
   0.106000E+04   0.291658E-04   0.435076E-04   0.374984E+00   0.483384E+01
   0.107000E+04   0.292621E-04   0.437639E-04   0.374989E+00   0.483384E+01
   0.108000E+04   0.293543E-04   0.440151E-04   0.374996E+00   0.483384E+01
   0.109000E+04   0.294428E-04   0.442612E-04   0.375001E+00   0.483384E+01
   0.110000E+04   0.295279E-04   0.445023E-04   0.375006E+00   0.483384E+01
   0.111000E+04   0.296098E-04   0.447386E-04   0.375011E+00   0.483384E+01
   0.112000E+04   0.296889E-04   0.449702E-04   0.375016E+00   0.483384E+01
   0.113000E+04   0.297654E-04   0.451971E-04   0.375021E+00   0.483384E+01
   0.114000E+04   0.298397E-04   0.454196E-04   0.375025E+00   0.483384E+01
   0.115000E+04   0.299119E-04   0.456378E-04   0.375029E+00   0.483384E+01
   0.116000E+04   0.299823E-04   0.458517E-04   0.375034E+00   0.483384E+01
   0.117000E+04   0.300513E-04   0.460615E-04   0.375038E+00   0.483384E+01
   0.118000E+04   0.301189E-04   0.462673E-04   0.375041E+00   0.483384E+01
   0.119000E+04   0.301856E-04   0.464693E-04   0.375045E+00   0.483384E+01
   0.120000E+04   0.302516E-04   0.466675E-04   0.375050E+00   0.483384E+01
   0.121000E+04   0.303171E-04   0.468622E-04   0.375053E+00   0.483384E+01
   0.122000E+04   0.303823E-04   0.470534E-04   0.375057E+00   0.483384E+01
   0.123000E+04   0.304476E-04   0.472412E-04   0.375060E+00   0.483384E+01
   0.124000E+04   0.305131E-04   0.474258E-04   0.375065E+00   0.483384E+01
   0.125000E+04   0.305792E-04   0.476074E-04   0.375068E+00   0.483384E+01
   0.126000E+04   0.306461E-04   0.477859E-04   0.375072E+00   0.483384E+01
   0.127000E+04   0.307141E-04   0.479617E-04   0.375075E+00   0.483384E+01
   0.128000E+04   0.307834E-04   0.481346E-04   0.375079E+00   0.483384E+01
   0.129000E+04   0.308543E-04   0.483049E-04   0.375083E+00   0.483384E+01
   0.130000E+04   0.309271E-04   0.484726E-04   0.375086E+00   0.483384E+01
   0.131000E+04   0.310020E-04   0.486379E-04   0.375089E+00   0.483384E+01
   0.132000E+04   0.310793E-04   0.488008E-04   0.375092E+00   0.483384E+01
   0.133000E+04   0.311593E-04   0.489614E-04   0.375096E+00   0.483384E+01
   0.134000E+04   0.312421E-04   0.491199E-04   0.375099E+00   0.483384E+01
   0.135000E+04   0.313280E-04   0.492763E-04   0.375101E+00   0.483384E+01
   0.136000E+04   0.314173E-04   0.494306E-04   0.375104E+00   0.483384E+01
   0.137000E+04   0.315101E-04   0.495830E-04   0.375107E+00   0.483384E+01
   0.138000E+04   0.316066E-04   0.497335E-04   0.375110E+00   0.483384E+01
   0.139000E+04   0.317071E-04   0.498823E-04   0.375112E+00   0.483384E+01
   0.140000E+04   0.318116E-04   0.500294E-04   0.375114E+00   0.483384E+01
   0.141000E+04   0.319204E-04   0.501749E-04   0.375117E+00   0.483384E+01
   0.142000E+04   0.320337E-04   0.503188E-04   0.375120E+00   0.483384E+01
   0.143000E+04   0.321514E-04   0.504613E-04   0.375122E+00   0.483384E+01
   0.144000E+04   0.322739E-04   0.506024E-04   0.375124E+00   0.483384E+01
   0.145000E+04   0.324011E-04   0.507422E-04   0.375127E+00   0.483384E+01
   0.146000E+04   0.325332E-04   0.508808E-04   0.375130E+00   0.483384E+01
   0.147000E+04   0.326703E-04   0.510181E-04   0.375132E+00   0.483384E+01
   0.148000E+04   0.328125E-04   0.511544E-04   0.375134E+00   0.483384E+01
   0.149000E+04   0.329598E-04   0.512897E-04   0.375136E+00   0.483384E+01
   0.150000E+04   0.331123E-04   0.514239E-04   0.375139E+00   0.483384E+01
   0.151000E+04   0.332700E-04   0.515573E-04   0.375141E+00   0.483384E+01
   0.152000E+04   0.334330E-04   0.516898E-04   0.375142E+00   0.483384E+01
   0.153000E+04   0.336014E-04   0.518216E-04   0.375144E+00   0.483384E+01
   0.154000E+04   0.337752E-04   0.519526E-04   0.375147E+00   0.483384E+01
   0.155000E+04   0.339543E-04   0.520829E-04   0.375149E+00   0.483384E+01
   0.156000E+04   0.341388E-04   0.522127E-04   0.375150E+00   0.483384E+01
   0.157000E+04   0.343287E-04   0.523418E-04   0.375151E+00   0.483384E+01
   0.158000E+04   0.345239E-04   0.524704E-04   0.375154E+00   0.483384E+01
   0.159000E+04   0.347244E-04   0.525986E-04   0.375156E+00   0.483384E+01
   0.160000E+04   0.349301E-04   0.527263E-04   0.375157E+00   0.483384E+01
   0.161000E+04   0.351410E-04   0.528536E-04   0.375159E+00   0.483384E+01
   0.162000E+04   0.353569E-04   0.529805E-04   0.375160E+00   0.483384E+01
   0.163000E+04   0.355778E-04   0.531071E-04   0.375163E+00   0.483384E+01
   0.164000E+04   0.358035E-04   0.532335E-04   0.375165E+00   0.483384E+01
   0.165000E+04   0.360339E-04   0.533596E-04   0.375165E+00   0.483384E+01
   0.166000E+04   0.362689E-04   0.534856E-04   0.375166E+00   0.483384E+01
   0.167000E+04   0.365083E-04   0.536113E-04   0.375169E+00   0.483384E+01
   0.168000E+04   0.367520E-04   0.537370E-04   0.375170E+00   0.483384E+01
   0.169000E+04   0.369998E-04   0.538626E-04   0.375171E+00   0.483384E+01
   0.170000E+04   0.372516E-04   0.539882E-04   0.375172E+00   0.483384E+01
   0.171000E+04   0.375073E-04   0.541138E-04   0.375174E+00   0.483384E+01
   0.172000E+04   0.377667E-04   0.542394E-04   0.375175E+00   0.483384E+01
   0.173000E+04   0.380297E-04   0.543651E-04   0.375176E+00   0.483384E+01
   0.174000E+04   0.382962E-04   0.544909E-04   0.375177E+00   0.483384E+01
   0.175000E+04   0.385661E-04   0.546169E-04   0.375178E+00   0.483384E+01
   0.176000E+04   0.388394E-04   0.547429E-04   0.375180E+00   0.483384E+01
   0.177000E+04   0.391157E-04   0.548691E-04   0.375182E+00   0.483384E+01
   0.178000E+04   0.393953E-04   0.549955E-04   0.375182E+00   0.483384E+01
   0.179000E+04   0.396778E-04   0.551221E-04   0.375183E+00   0.483384E+01
   0.180000E+04   0.399632E-04   0.552489E-04   0.375185E+00   0.483384E+01
   0.181000E+04   0.402516E-04   0.553759E-04   0.375186E+00   0.483384E+01
   0.182000E+04   0.405427E-04   0.555031E-04   0.375186E+00   0.483384E+01
   0.183000E+04   0.408366E-04   0.556307E-04   0.375187E+00   0.483384E+01
   0.184000E+04   0.411332E-04   0.557584E-04   0.375189E+00   0.483384E+01
   0.185000E+04   0.414324E-04   0.558864E-04   0.375190E+00   0.483384E+01
   0.186000E+04   0.417342E-04   0.560148E-04   0.375190E+00   0.483384E+01
   0.187000E+04   0.420385E-04   0.561434E-04   0.375190E+00   0.483384E+01
   0.188000E+04   0.423453E-04   0.562723E-04   0.375192E+00   0.483384E+01
   0.189000E+04   0.426546E-04   0.564015E-04   0.375193E+00   0.483384E+01
   0.190000E+04   0.429664E-04   0.565310E-04   0.375194E+00   0.483384E+01
   0.191000E+04   0.432805E-04   0.566608E-04   0.375194E+00   0.483384E+01
   0.192000E+04   0.435970E-04   0.567910E-04   0.375195E+00   0.483384E+01
   0.193000E+04   0.439158E-04   0.569215E-04   0.375197E+00   0.483384E+01
   0.194000E+04   0.442370E-04   0.570523E-04   0.375198E+00   0.483384E+01
   0.195000E+04   0.445604E-04   0.571835E-04   0.375198E+00   0.483384E+01
   0.196000E+04   0.448860E-04   0.573150E-04   0.375198E+00   0.483384E+01
   0.197000E+04   0.452139E-04   0.574469E-04   0.375200E+00   0.483384E+01
   0.198000E+04   0.455439E-04   0.575791E-04   0.375201E+00   0.483384E+01
   0.199000E+04   0.458762E-04   0.577117E-04   0.375200E+00   0.483384E+01
   0.200000E+04   0.462106E-04   0.578447E-04   0.375200E+00   0.483384E+01
   0.201000E+04   0.465471E-04   0.579780E-04   0.375202E+00   0.483384E+01
   0.202000E+04   0.468858E-04   0.581117E-04   0.375203E+00   0.483384E+01
   0.203000E+04   0.472265E-04   0.582458E-04   0.375203E+00   0.483384E+01
   0.204000E+04   0.475693E-04   0.583803E-04   0.375203E+00   0.483384E+01
   0.205000E+04   0.479142E-04   0.585152E-04   0.375204E+00   0.483384E+01
   0.206000E+04   0.482611E-04   0.586505E-04   0.375206E+00   0.483384E+01
   0.207000E+04   0.486100E-04   0.587861E-04   0.375206E+00   0.483384E+01
   0.208000E+04   0.489609E-04   0.589222E-04   0.375206E+00   0.483384E+01
   0.209000E+04   0.493137E-04   0.590586E-04   0.375207E+00   0.483384E+01
   0.210000E+04   0.496685E-04   0.591954E-04   0.375208E+00   0.483384E+01
   0.211000E+04   0.500252E-04   0.593326E-04   0.375209E+00   0.483384E+01
   0.212000E+04   0.503839E-04   0.594702E-04   0.375209E+00   0.483384E+01
   0.213000E+04   0.507444E-04   0.596082E-04   0.375209E+00   0.483384E+01
   0.214000E+04   0.511067E-04   0.597466E-04   0.375210E+00   0.483384E+01
   0.215000E+04   0.514709E-04   0.598853E-04   0.375211E+00   0.483384E+01
   0.216000E+04   0.518369E-04   0.600244E-04   0.375211E+00   0.483384E+01
   0.217000E+04   0.522047E-04   0.601639E-04   0.375211E+00   0.483384E+01
   0.218000E+04   0.525742E-04   0.603037E-04   0.375212E+00   0.483384E+01
   0.219000E+04   0.529455E-04   0.604439E-04   0.375213E+00   0.483384E+01
   0.220000E+04   0.533186E-04   0.605844E-04   0.375213E+00   0.483384E+01
   0.221000E+04   0.536933E-04   0.607253E-04   0.375213E+00   0.483384E+01
   0.222000E+04   0.540698E-04   0.608665E-04   0.375214E+00   0.483384E+01
   0.223000E+04   0.544478E-04   0.610080E-04   0.375215E+00   0.483384E+01
   0.224000E+04   0.548276E-04   0.611499E-04   0.375216E+00   0.483384E+01
   0.225000E+04   0.552089E-04   0.612920E-04   0.375216E+00   0.483384E+01
   0.226000E+04   0.555919E-04   0.614345E-04   0.375216E+00   0.483384E+01
   0.227000E+04   0.559764E-04   0.615773E-04   0.375217E+00   0.483384E+01
   0.228000E+04   0.563624E-04   0.617203E-04   0.375218E+00   0.483384E+01
   0.229000E+04   0.567500E-04   0.618636E-04   0.375217E+00   0.483384E+01
   0.230000E+04   0.571392E-04   0.620073E-04   0.375217E+00   0.483384E+01
   0.231000E+04   0.575298E-04   0.621511E-04   0.375218E+00   0.483384E+01
   0.232000E+04   0.579219E-04   0.622952E-04   0.375219E+00   0.483384E+01
   0.233000E+04   0.583156E-04   0.624395E-04   0.375219E+00   0.483384E+01
   0.234000E+04   0.587107E-04   0.628574E-04   0.375219E+00   0.483384E+01
   0.235000E+04   0.591072E-04   0.637578E-04   0.375220E+00   0.483384E+01
   0.236000E+04   0.595051E-04   0.646620E-04   0.375221E+00   0.483384E+01
   0.237000E+04   0.599045E-04   0.655702E-04   0.375221E+00   0.483384E+01
   0.238000E+04   0.603052E-04   0.664821E-04   0.375221E+00   0.483384E+01
   0.239000E+04   0.607074E-04   0.673978E-04   0.375221E+00   0.483384E+01
   0.240000E+04   0.611108E-04   0.683171E-04   0.375223E+00   0.483384E+01
   0.241000E+04   0.615156E-04   0.692402E-04   0.375223E+00   0.483384E+01
   0.242000E+04   0.619218E-04   0.701670E-04   0.375223E+00   0.483384E+01
   0.243000E+04   0.623293E-04   0.710974E-04   0.375222E+00   0.483384E+01
   0.244000E+04   0.627380E-04   0.720313E-04   0.375224E+00   0.483384E+01
   0.245000E+04   0.631480E-04   0.729688E-04   0.375224E+00   0.483384E+01
   0.246000E+04   0.635593E-04   0.739099E-04   0.375224E+00   0.483384E+01
   0.247000E+04   0.639718E-04   0.748544E-04   0.375223E+00   0.483384E+01
   0.248000E+04   0.643855E-04   0.758023E-04   0.375224E+00   0.483384E+01
   0.249000E+04   0.648005E-04   0.767536E-04   0.375225E+00   0.483384E+01
   0.250000E+04   0.652166E-04   0.777083E-04   0.375225E+00   0.483384E+01
   0.251000E+04   0.656339E-04   0.786663E-04   0.375225E+00   0.483384E+01
   0.252000E+04   0.660523E-04   0.796274E-04   0.375225E+00   0.483384E+01
   0.253000E+04   0.664718E-04   0.805917E-04   0.375226E+00   0.483384E+01
   0.254000E+04   0.668925E-04   0.815591E-04   0.375227E+00   0.483384E+01
   0.255000E+04   0.673142E-04   0.825296E-04   0.375227E+00   0.483384E+01
   0.256000E+04   0.677370E-04   0.835031E-04   0.375226E+00   0.483384E+01
   0.257000E+04   0.681607E-04   0.844793E-04   0.375227E+00   0.483384E+01
   0.258000E+04   0.685855E-04   0.854585E-04   0.375228E+00   0.483384E+01
   0.259000E+04   0.690113E-04   0.864405E-04   0.375227E+00   0.483384E+01
   0.260000E+04   0.694380E-04   0.874252E-04   0.375227E+00   0.483384E+01
   0.261000E+04   0.698656E-04   0.884125E-04   0.375228E+00   0.483384E+01
   0.262000E+04   0.702942E-04   0.894024E-04   0.375228E+00   0.483384E+01
   0.263000E+04   0.707236E-04   0.903949E-04   0.375228E+00   0.483384E+01
   0.264000E+04   0.711540E-04   0.913899E-04   0.375227E+00   0.483384E+01
   0.265000E+04   0.715851E-04   0.923872E-04   0.375228E+00   0.483384E+01
   0.266000E+04   0.720170E-04   0.933869E-04   0.375229E+00   0.483384E+01
   0.267000E+04   0.724498E-04   0.943889E-04   0.375229E+00   0.483384E+01
   0.268000E+04   0.728834E-04   0.953931E-04   0.375228E+00   0.483384E+01
   0.269000E+04   0.733176E-04   0.963994E-04   0.375228E+00   0.483384E+01
   0.270000E+04   0.737525E-04   0.974076E-04   0.375230E+00   0.483384E+01
   0.271000E+04   0.741881E-04   0.984180E-04   0.375230E+00   0.483384E+01
   0.272000E+04   0.746245E-04   0.994303E-04   0.375229E+00   0.483384E+01
   0.273000E+04   0.750614E-04   0.100444E-03   0.375229E+00   0.483384E+01
   0.274000E+04   0.754988E-04   0.101460E-03   0.375230E+00   0.483384E+01
   0.275000E+04   0.759369E-04   0.102477E-03   0.375230E+00   0.483384E+01
   0.276000E+04   0.763755E-04   0.103497E-03   0.375230E+00   0.483384E+01
   0.277000E+04   0.768147E-04   0.104517E-03   0.375229E+00   0.483384E+01
   0.278000E+04   0.772543E-04   0.105539E-03   0.375229E+00   0.483384E+01
   0.279000E+04   0.776943E-04   0.106563E-03   0.375230E+00   0.483384E+01
   0.280000E+04   0.781349E-04   0.107588E-03   0.375230E+00   0.483384E+01
   0.281000E+04   0.785758E-04   0.108614E-03   0.375229E+00   0.483384E+01
   0.282000E+04   0.790171E-04   0.109641E-03   0.375229E+00   0.483384E+01
   0.283000E+04   0.794586E-04   0.110669E-03   0.375230E+00   0.483384E+01
   0.284000E+04   0.799006E-04   0.111698E-03   0.375231E+00   0.483384E+01
   0.285000E+04   0.803428E-04   0.112728E-03   0.375230E+00   0.483384E+01
   0.286000E+04   0.807852E-04   0.113759E-03   0.375230E+00   0.483384E+01
   0.287000E+04   0.812276E-04   0.114790E-03   0.375231E+00   0.483384E+01
   0.288000E+04   0.816703E-04   0.115822E-03   0.375231E+00   0.483384E+01
   0.289000E+04   0.821132E-04   0.116855E-03   0.375231E+00   0.483384E+01
   0.290000E+04   0.825560E-04   0.117888E-03   0.375230E+00   0.483384E+01
   0.291000E+04   0.829988E-04   0.118920E-03   0.375231E+00   0.483384E+01
   0.292000E+04   0.834417E-04   0.119953E-03   0.375231E+00   0.483384E+01
   0.293000E+04   0.838845E-04   0.120986E-03   0.375230E+00   0.483384E+01
   0.294000E+04   0.843272E-04   0.122019E-03   0.375230E+00   0.483384E+01
   0.295000E+04   0.847697E-04   0.123052E-03   0.375230E+00   0.483384E+01
   0.296000E+04   0.852120E-04   0.124084E-03   0.375231E+00   0.483384E+01
   0.297000E+04   0.856541E-04   0.125116E-03   0.375231E+00   0.483384E+01
   0.298000E+04   0.860960E-04   0.126147E-03   0.375230E+00   0.483384E+01
   0.299000E+04   0.865374E-04   0.127178E-03   0.375230E+00   0.483384E+01
   0.300000E+04   0.869784E-04   0.128207E-03   0.375231E+00   0.483384E+01
   0.301000E+04   0.874191E-04   0.129236E-03   0.375232E+00   0.483384E+01
   0.302000E+04   0.878593E-04   0.130264E-03   0.375231E+00   0.483384E+01
   0.303000E+04   0.882989E-04   0.131290E-03   0.375230E+00   0.483384E+01
   0.304000E+04   0.887378E-04   0.132315E-03   0.375231E+00   0.483384E+01
   0.305000E+04   0.891762E-04   0.133338E-03   0.375232E+00   0.483384E+01
   0.306000E+04   0.896139E-04   0.134360E-03   0.375231E+00   0.483384E+01
   0.307000E+04   0.900508E-04   0.135380E-03   0.375230E+00   0.483384E+01
   0.308000E+04   0.904869E-04   0.136398E-03   0.375231E+00   0.483384E+01
   0.309000E+04   0.909222E-04   0.137414E-03   0.375231E+00   0.483384E+01
   0.310000E+04   0.913567E-04   0.138428E-03   0.375231E+00   0.483384E+01
   0.311000E+04   0.917902E-04   0.139440E-03   0.375230E+00   0.483384E+01
   0.312000E+04   0.922227E-04   0.140449E-03   0.375230E+00   0.483384E+01
   0.313000E+04   0.926541E-04   0.141455E-03   0.375231E+00   0.483384E+01
   0.314000E+04   0.930846E-04   0.142460E-03   0.375231E+00   0.483384E+01
   0.315000E+04   0.935140E-04   0.143461E-03   0.375231E+00   0.483384E+01
   0.316000E+04   0.939421E-04   0.144460E-03   0.375230E+00   0.483384E+01
   0.317000E+04   0.943690E-04   0.145456E-03   0.375231E+00   0.483384E+01
   0.318000E+04   0.947947E-04   0.146448E-03   0.375231E+00   0.483384E+01
   0.319000E+04   0.952192E-04   0.147438E-03   0.375231E+00   0.483384E+01
   0.320000E+04   0.956423E-04   0.148424E-03   0.375231E+00   0.483384E+01
   0.321000E+04   0.960639E-04   0.149406E-03   0.375231E+00   0.483384E+01
   0.322000E+04   0.964841E-04   0.150386E-03   0.375231E+00   0.483384E+01
   0.323000E+04   0.969030E-04   0.151361E-03   0.375230E+00   0.483384E+01
   0.324000E+04   0.973203E-04   0.152333E-03   0.375230E+00   0.483384E+01
   0.325000E+04   0.977360E-04   0.153301E-03   0.375231E+00   0.483384E+01
   0.326000E+04   0.981501E-04   0.154265E-03   0.375231E+00   0.483384E+01
   0.327000E+04   0.985627E-04   0.155226E-03   0.375230E+00   0.483384E+01
   0.328000E+04   0.989737E-04   0.156182E-03   0.375229E+00   0.483384E+01
   0.329000E+04   0.993830E-04   0.157134E-03   0.375230E+00   0.483384E+01
   0.330000E+04   0.997904E-04   0.158081E-03   0.375231E+00   0.483384E+01
   0.331000E+04   0.100196E-03   0.159024E-03   0.375231E+00   0.483384E+01
   0.332000E+04   0.100600E-03   0.159963E-03   0.375229E+00   0.483384E+01
   0.333000E+04   0.101002E-03   0.160897E-03   0.375229E+00   0.483384E+01
   0.334000E+04   0.101402E-03   0.161826E-03   0.375232E+00   0.483384E+01
   0.335000E+04   0.101801E-03   0.162750E-03   0.375233E+00   0.483384E+01
   0.336000E+04   0.102197E-03   0.163670E-03   0.375231E+00   0.483384E+01
   0.337000E+04   0.102591E-03   0.164584E-03   0.375229E+00   0.483384E+01
   0.338000E+04   0.102983E-03   0.165492E-03   0.375231E+00   0.483384E+01
   0.339000E+04   0.103373E-03   0.166396E-03   0.375233E+00   0.483384E+01
   0.340000E+04   0.103761E-03   0.167294E-03   0.375232E+00   0.483384E+01
   0.341000E+04   0.104146E-03   0.168186E-03   0.375229E+00   0.483384E+01
   0.342000E+04   0.104529E-03   0.169072E-03   0.375229E+00   0.483384E+01
   0.343000E+04   0.104910E-03   0.169952E-03   0.375232E+00   0.483384E+01
   0.344000E+04   0.105289E-03   0.170827E-03   0.375233E+00   0.483384E+01
   0.345000E+04   0.105665E-03   0.171695E-03   0.375231E+00   0.483384E+01
   0.346000E+04   0.106039E-03   0.172557E-03   0.375229E+00   0.483384E+01
   0.347000E+04   0.106410E-03   0.173413E-03   0.375230E+00   0.483384E+01
   0.348000E+04   0.106780E-03   0.174263E-03   0.375233E+00   0.483384E+01
   0.349000E+04   0.107147E-03   0.175107E-03   0.375234E+00   0.483384E+01
   0.350000E+04   0.107511E-03   0.175944E-03   0.375231E+00   0.483384E+01
   0.351000E+04   0.107873E-03   0.176775E-03   0.375230E+00   0.483384E+01
   0.352000E+04   0.108233E-03   0.177602E-03   0.375232E+00   0.483384E+01
   0.353000E+04   0.108591E-03   0.178423E-03   0.375234E+00   0.483384E+01
   0.354000E+04   0.108947E-03   0.179239E-03   0.375233E+00   0.483384E+01
   0.355000E+04   0.109301E-03   0.180049E-03   0.375230E+00   0.483384E+01
   0.356000E+04   0.109652E-03   0.180854E-03   0.375229E+00   0.483384E+01
   0.357000E+04   0.110003E-03   0.181656E-03   0.375231E+00   0.483384E+01
   0.358000E+04   0.110352E-03   0.182454E-03   0.375233E+00   0.483384E+01
   0.359000E+04   0.110700E-03   0.183247E-03   0.375231E+00   0.483384E+01
   0.360000E+04   0.111045E-03   0.184036E-03   0.375228E+00   0.483384E+01
   0.361000E+04   0.111389E-03   0.184823E-03   0.375227E+00   0.483384E+01
   0.362000E+04   0.111733E-03   0.185607E-03   0.375229E+00   0.483384E+01
   0.363000E+04   0.112075E-03   0.186387E-03   0.375230E+00   0.483384E+01
   0.364000E+04   0.112416E-03   0.187165E-03   0.375227E+00   0.483384E+01
   0.365000E+04   0.112755E-03   0.187939E-03   0.375223E+00   0.483384E+01
   0.366000E+04   0.113093E-03   0.188711E-03   0.375223E+00   0.483384E+01
   0.367000E+04   0.113431E-03   0.189481E-03   0.375226E+00   0.483384E+01
   0.368000E+04   0.113767E-03   0.190249E-03   0.375226E+00   0.483384E+01
   0.369000E+04   0.114102E-03   0.191013E-03   0.375222E+00   0.483384E+01
   0.370000E+04   0.114436E-03   0.191774E-03   0.375218E+00   0.483384E+01
   0.371000E+04   0.114769E-03   0.192534E-03   0.375220E+00   0.483384E+01
   0.372000E+04   0.115101E-03   0.193291E-03   0.375224E+00   0.483384E+01
   0.373000E+04   0.115432E-03   0.194046E-03   0.375224E+00   0.483384E+01
   0.374000E+04   0.115760E-03   0.194796E-03   0.375219E+00   0.483384E+01
   0.375000E+04   0.116088E-03   0.195544E-03   0.375217E+00   0.483384E+01
   0.376000E+04   0.116415E-03   0.196289E-03   0.375221E+00   0.483384E+01
   0.377000E+04   0.116741E-03   0.197031E-03   0.375226E+00   0.483384E+01
   0.378000E+04   0.117064E-03   0.197769E-03   0.375225E+00   0.483384E+01
   0.379000E+04   0.117386E-03   0.198503E-03   0.375222E+00   0.483384E+01
   0.380000E+04   0.117706E-03   0.199233E-03   0.375222E+00   0.483384E+01
   0.381000E+04   0.118026E-03   0.199960E-03   0.375228E+00   0.483384E+01
   0.382000E+04   0.118344E-03   0.200684E-03   0.375231E+00   0.483384E+01
   0.383000E+04   0.118660E-03   0.201404E-03   0.375229E+00   0.483384E+01
   0.384000E+04   0.118974E-03   0.202120E-03   0.375227E+00   0.483384E+01
   0.385000E+04   0.119288E-03   0.202834E-03   0.375229E+00   0.483384E+01
   0.386000E+04   0.119601E-03   0.203546E-03   0.375234E+00   0.483384E+01
   0.387000E+04   0.119914E-03   0.204257E-03   0.375234E+00   0.483384E+01
   0.388000E+04   0.120225E-03   0.204966E-03   0.375232E+00   0.483384E+01
   0.389000E+04   0.120536E-03   0.205672E-03   0.375231E+00   0.483384E+01
   0.390000E+04   0.120846E-03   0.206379E-03   0.375232E+00   0.483384E+01
   0.391000E+04   0.121157E-03   0.207087E-03   0.375235E+00   0.483384E+01
   0.392000E+04   0.121468E-03   0.207794E-03   0.375234E+00   0.483384E+01
   0.393000E+04   0.121777E-03   0.208500E-03   0.375232E+00   0.483384E+01