title="breakthrough data set at     5 wells"
variables="time(days)","cavg","cpk","upk","zswi"
zone i=     1295
   0.100000E+02   0.347123E-11   0.545941E-11   0.458733E+00   0.485287E+01
   0.200000E+02   0.820731E-11   0.126046E-10   0.360671E+00   0.482880E+01
   0.300000E+02   0.164827E-10   0.248368E-10   0.359943E+00   0.482880E+01
   0.400000E+02   0.300073E-10   0.444637E-10   0.359758E+00   0.482880E+01
   0.500000E+02   0.510363E-10   0.744670E-10   0.359653E+00   0.482880E+01
   0.600000E+02   0.825269E-10   0.118698E-09   0.359600E+00   0.482880E+01
   0.700000E+02   0.128304E-09   0.184753E-09   0.359562E+00   0.482880E+01
   0.800000E+02   0.193214E-09   0.280308E-09   0.359580E+00   0.482880E+01
   0.900000E+02   0.283464E-09   0.413925E-09   0.359596E+00   0.482880E+01
   0.100000E+03   0.406520E-09   0.597037E-09   0.359614E+00   0.482880E+01
   0.110000E+03   0.571432E-09   0.843553E-09   0.359653E+00   0.482880E+01
   0.120000E+03   0.788917E-09   0.116999E-08   0.359705E+00   0.482880E+01
   0.130000E+03   0.107143E-08   0.159557E-08   0.359765E+00   0.482880E+01
   0.140000E+03   0.143318E-08   0.214225E-08   0.359832E+00   0.482880E+01
   0.150000E+03   0.189007E-08   0.283459E-08   0.359902E+00   0.482880E+01
   0.160000E+03   0.245961E-08   0.369958E-08   0.359976E+00   0.482880E+01
   0.170000E+03   0.316070E-08   0.476630E-08   0.360051E+00   0.482880E+01
   0.180000E+03   0.401346E-08   0.606550E-08   0.360127E+00   0.482880E+01
   0.190000E+03   0.503887E-08   0.763596E-08   0.360204E+00   0.482880E+01
   0.200000E+03   0.625850E-08   0.956526E-08   0.360282E+00   0.482880E+01
   0.210000E+03   0.769409E-08   0.118488E-07   0.360359E+00   0.482880E+01
   0.220000E+03   0.936720E-08   0.145217E-07   0.360436E+00   0.482880E+01
   0.230000E+03   0.112988E-07   0.176170E-07   0.360513E+00   0.482880E+01
   0.240000E+03   0.135087E-07   0.211649E-07   0.360590E+00   0.482880E+01
   0.250000E+03   0.160156E-07   0.251915E-07   0.360666E+00   0.482880E+01
   0.260000E+03   0.188360E-07   0.297180E-07   0.360742E+00   0.482880E+01
   0.270000E+03   0.219845E-07   0.347599E-07   0.360816E+00   0.482880E+01
   0.280000E+03   0.254731E-07   0.403260E-07   0.360891E+00   0.482880E+01
   0.290000E+03   0.293111E-07   0.464179E-07   0.360964E+00   0.482880E+01
   0.300000E+03   0.335045E-07   0.530291E-07   0.361037E+00   0.482880E+01
   0.310000E+03   0.380563E-07   0.601452E-07   0.361109E+00   0.482880E+01
   0.320000E+03   0.429657E-07   0.677428E-07   0.361180E+00   0.482880E+01
   0.330000E+03   0.482288E-07   0.757898E-07   0.361251E+00   0.482880E+01
   0.340000E+03   0.538375E-07   0.842452E-07   0.361321E+00   0.482880E+01
   0.350000E+03   0.597801E-07   0.930589E-07   0.361390E+00   0.482880E+01
   0.360000E+03   0.660413E-07   0.102172E-06   0.361459E+00   0.482880E+01
   0.370000E+03   0.726015E-07   0.111518E-06   0.361527E+00   0.482880E+01
   0.380000E+03   0.794376E-07   0.121020E-06   0.361594E+00   0.482880E+01
   0.390000E+03   0.865225E-07   0.130594E-06   0.361660E+00   0.482880E+01
   0.400000E+03   0.938252E-07   0.140148E-06   0.361726E+00   0.482880E+01
   0.410000E+03   0.101311E-06   0.149582E-06   0.361791E+00   0.482880E+01
   0.420000E+03   0.108942E-06   0.158790E-06   0.361855E+00   0.482880E+01
   0.430000E+03   0.116675E-06   0.169201E-06   0.361919E+00   0.482880E+01
   0.440000E+03   0.124466E-06   0.179614E-06   0.361982E+00   0.482880E+01
   0.450000E+03   0.132265E-06   0.189875E-06   0.362044E+00   0.482880E+01
   0.460000E+03   0.140019E-06   0.199892E-06   0.362105E+00   0.482880E+01
   0.470000E+03   0.147674E-06   0.209573E-06   0.362165E+00   0.482880E+01
   0.480000E+03   0.155170E-06   0.218819E-06   0.362225E+00   0.482880E+01
   0.490000E+03   0.162444E-06   0.231201E-06   0.362284E+00   0.482880E+01
   0.500000E+03   0.169432E-06   0.244282E-06   0.362343E+00   0.482880E+01
   0.510000E+03   0.176063E-06   0.257363E-06   0.362400E+00   0.482880E+01
   0.520000E+03   0.182266E-06   0.270375E-06   0.362457E+00   0.482880E+01
   0.530000E+03   0.187964E-06   0.283246E-06   0.362514E+00   0.482880E+01
   0.540000E+03   0.193076E-06   0.295897E-06   0.362570E+00   0.482880E+01
   0.550000E+03   0.197520E-06   0.308244E-06   0.362625E+00   0.482880E+01
   0.560000E+03   0.201207E-06   0.320198E-06   0.362679E+00   0.482880E+01
   0.570000E+03   0.204044E-06   0.331664E-06   0.362732E+00   0.482880E+01
   0.580000E+03   0.205934E-06   0.342542E-06   0.362785E+00   0.482880E+01
   0.590000E+03   0.206773E-06   0.352723E-06   0.362837E+00   0.482880E+01
   0.600000E+03   0.206452E-06   0.362094E-06   0.362888E+00   0.482880E+01
   0.610000E+03   0.204857E-06   0.370534E-06   0.362938E+00   0.482880E+01
   0.620000E+03   0.201864E-06   0.377911E-06   0.362987E+00   0.482880E+01
   0.630000E+03   0.197343E-06   0.384091E-06   0.363035E+00   0.482880E+01
   0.640000E+03   0.191156E-06   0.388928E-06   0.363083E+00   0.482880E+01
   0.650000E+03   0.183159E-06   0.392271E-06   0.363130E+00   0.482880E+01
   0.660000E+03   0.173198E-06   0.393960E-06   0.363176E+00   0.482880E+01
   0.670000E+03   0.161113E-06   0.393832E-06   0.363221E+00   0.482880E+01
   0.680000E+03   0.146737E-06   0.391717E-06   0.363266E+00   0.482880E+01
   0.690000E+03   0.129899E-06   0.387443E-06   0.363310E+00   0.482880E+01
   0.700000E+03   0.110424E-06   0.380837E-06   0.363353E+00   0.482880E+01
   0.710000E+03   0.881333E-07   0.371724E-06   0.363396E+00   0.482880E+01
   0.720000E+03   0.628484E-07   0.359935E-06   0.363438E+00   0.482880E+01
   0.730000E+03   0.343926E-07   0.356045E-06   0.363479E+00   0.482880E+01
   0.740000E+03   0.259270E-08   0.362256E-06   0.363520E+00   0.482880E+01
   0.750000E+03  -0.327189E-07   0.367736E-06   0.363561E+00   0.482880E+01
   0.760000E+03  -0.717016E-07   0.372437E-06   0.363600E+00   0.482880E+01
   0.770000E+03  -0.114505E-06   0.376315E-06   0.363639E+00   0.482880E+01
   0.780000E+03  -0.161267E-06   0.379333E-06   0.363678E+00   0.482880E+01
   0.790000E+03  -0.212112E-06   0.381454E-06   0.363715E+00   0.482880E+01
   0.800000E+03  -0.267147E-06   0.382650E-06   0.363752E+00   0.482880E+01
   0.810000E+03  -0.326466E-06   0.382898E-06   0.363788E+00   0.482880E+01
   0.820000E+03  -0.390142E-06   0.382180E-06   0.363824E+00   0.482880E+01
   0.830000E+03  -0.458231E-06   0.380482E-06   0.363859E+00   0.482880E+01
   0.840000E+03  -0.530769E-06   0.377798E-06   0.363894E+00   0.482880E+01
   0.850000E+03  -0.607773E-06   0.374126E-06   0.363927E+00   0.482880E+01
   0.860000E+03  -0.689241E-06   0.369471E-06   0.363961E+00   0.482880E+01
   0.870000E+03  -0.775150E-06   0.363842E-06   0.363993E+00   0.482880E+01
   0.880000E+03  -0.865459E-06   0.357252E-06   0.364026E+00   0.482880E+01
   0.890000E+03  -0.960106E-06   0.349723E-06   0.364057E+00   0.482880E+01
   0.900000E+03  -0.105901E-05   0.341277E-06   0.364088E+00   0.482880E+01
   0.910000E+03  -0.116208E-05   0.331942E-06   0.364119E+00   0.482880E+01
   0.920000E+03  -0.126920E-05   0.321752E-06   0.364150E+00   0.482880E+01
   0.930000E+03  -0.138024E-05   0.310741E-06   0.364180E+00   0.482880E+01
   0.940000E+03  -0.149505E-05   0.299982E-06   0.364210E+00   0.482880E+01
   0.950000E+03  -0.161348E-05   0.310105E-06   0.364239E+00   0.482880E+01
   0.960000E+03  -0.173536E-05   0.320351E-06   0.364268E+00   0.482880E+01
   0.970000E+03  -0.186050E-05   0.330716E-06   0.364297E+00   0.482880E+01
   0.980000E+03  -0.198871E-05   0.341193E-06   0.364325E+00   0.482880E+01
   0.990000E+03  -0.211980E-05   0.351778E-06   0.364354E+00   0.482880E+01
   0.100000E+04  -0.225355E-05   0.362464E-06   0.364382E+00   0.482880E+01
   0.101000E+04  -0.238977E-05   0.373247E-06   0.364409E+00   0.482880E+01
   0.102000E+04  -0.252823E-05   0.384121E-06   0.364436E+00   0.482880E+01
   0.103000E+04  -0.266871E-05   0.395080E-06   0.364463E+00   0.482880E+01
   0.104000E+04  -0.281099E-05   0.406120E-06   0.364490E+00   0.482880E+01
   0.105000E+04  -0.295486E-05   0.417234E-06   0.364517E+00   0.482880E+01
   0.106000E+04  -0.310009E-05   0.428419E-06   0.364543E+00   0.482880E+01
   0.107000E+04  -0.324645E-05   0.439668E-06   0.364568E+00   0.482880E+01
   0.108000E+04  -0.339373E-05   0.450978E-06   0.364594E+00   0.482880E+01
   0.109000E+04  -0.354170E-05   0.462344E-06   0.364619E+00   0.482880E+01
   0.110000E+04  -0.369014E-05   0.473760E-06   0.364644E+00   0.482880E+01
   0.111000E+04  -0.383885E-05   0.485224E-06   0.364668E+00   0.482880E+01
   0.112000E+04  -0.398762E-05   0.496731E-06   0.364692E+00   0.482880E+01
   0.113000E+04  -0.413624E-05   0.508278E-06   0.364716E+00   0.482880E+01
   0.114000E+04  -0.428451E-05   0.519861E-06   0.364739E+00   0.482880E+01
   0.115000E+04  -0.443226E-05   0.531477E-06   0.364762E+00   0.482880E+01
   0.116000E+04  -0.457929E-05   0.543123E-06   0.364785E+00   0.482880E+01
   0.117000E+04  -0.472545E-05   0.554796E-06   0.364807E+00   0.482880E+01
   0.118000E+04  -0.487056E-05   0.566494E-06   0.364829E+00   0.482880E+01
   0.119000E+04  -0.501449E-05   0.578215E-06   0.364851E+00   0.482880E+01
   0.120000E+04  -0.515709E-05   0.589956E-06   0.364872E+00   0.482880E+01
   0.121000E+04  -0.529823E-05   0.601716E-06   0.364893E+00   0.482880E+01
   0.122000E+04  -0.543781E-05   0.613494E-06   0.364914E+00   0.482880E+01
   0.123000E+04  -0.557571E-05   0.625288E-06   0.364935E+00   0.482880E+01
   0.124000E+04  -0.571185E-05   0.637097E-06   0.364955E+00   0.482880E+01
   0.125000E+04  -0.584615E-05   0.648921E-06   0.364975E+00   0.482880E+01
   0.126000E+04  -0.597854E-05   0.660759E-06   0.364994E+00   0.482880E+01
   0.127000E+04  -0.610897E-05   0.672610E-06   0.365014E+00   0.482880E+01
   0.128000E+04  -0.623738E-05   0.684474E-06   0.365033E+00   0.482880E+01
   0.129000E+04  -0.636375E-05   0.696351E-06   0.365052E+00   0.482880E+01
   0.130000E+04  -0.648806E-05   0.708242E-06   0.365071E+00   0.482880E+01
   0.131000E+04  -0.661028E-05   0.720145E-06   0.365090E+00   0.482880E+01
   0.132000E+04  -0.673042E-05   0.732061E-06   0.365108E+00   0.482880E+01
   0.133000E+04  -0.684847E-05   0.743991E-06   0.365126E+00   0.482880E+01
   0.134000E+04  -0.696445E-05   0.755935E-06   0.365144E+00   0.482880E+01
   0.135000E+04  -0.707838E-05   0.767893E-06   0.365162E+00   0.482880E+01
   0.136000E+04  -0.719029E-05   0.779865E-06   0.365180E+00   0.482880E+01
   0.137000E+04  -0.730021E-05   0.791852E-06   0.365198E+00   0.482880E+01
   0.138000E+04  -0.740817E-05   0.803854E-06   0.365215E+00   0.482880E+01
   0.139000E+04  -0.751423E-05   0.815872E-06   0.365232E+00   0.482880E+01
   0.140000E+04  -0.761843E-05   0.827904E-06   0.365249E+00   0.482880E+01
   0.141000E+04  -0.772082E-05   0.839953E-06   0.365266E+00   0.482880E+01
   0.142000E+04  -0.782147E-05   0.852016E-06   0.365283E+00   0.482880E+01
   0.143000E+04  -0.792043E-05   0.864095E-06   0.365300E+00   0.482880E+01
   0.144000E+04  -0.801777E-05   0.876188E-06   0.365316E+00   0.482880E+01
   0.145000E+04  -0.811355E-05   0.888295E-06   0.365333E+00   0.482880E+01
   0.146000E+04  -0.820784E-05   0.900416E-06   0.365349E+00   0.482880E+01
   0.147000E+04  -0.830070E-05   0.912550E-06   0.365365E+00   0.482880E+01
   0.148000E+04  -0.839221E-05   0.924694E-06   0.365380E+00   0.482880E+01
   0.149000E+04  -0.848242E-05   0.936849E-06   0.365396E+00   0.482880E+01
   0.150000E+04  -0.857142E-05   0.949013E-06   0.365411E+00   0.482880E+01
   0.151000E+04  -0.865925E-05   0.961183E-06   0.365427E+00   0.482880E+01
   0.152000E+04  -0.874599E-05   0.973358E-06   0.365442E+00   0.482880E+01
   0.153000E+04  -0.883169E-05   0.985536E-06   0.365457E+00   0.482880E+01
   0.154000E+04  -0.891640E-05   0.997713E-06   0.365471E+00   0.482880E+01
   0.155000E+04  -0.900018E-05   0.100989E-05   0.365486E+00   0.482880E+01
   0.156000E+04  -0.908306E-05   0.102205E-05   0.365500E+00   0.482880E+01
   0.157000E+04  -0.916510E-05   0.103421E-05   0.365514E+00   0.482880E+01
   0.158000E+04  -0.924630E-05   0.104636E-05   0.365528E+00   0.482880E+01
   0.159000E+04  -0.932670E-05   0.105848E-05   0.365541E+00   0.482880E+01
   0.160000E+04  -0.940632E-05   0.107058E-05   0.365555E+00   0.482880E+01
   0.161000E+04  -0.948514E-05   0.108266E-05   0.365568E+00   0.482880E+01
   0.162000E+04  -0.956317E-05   0.109471E-05   0.365581E+00   0.482880E+01
   0.163000E+04  -0.964039E-05   0.110672E-05   0.365594E+00   0.482880E+01
   0.164000E+04  -0.971677E-05   0.111868E-05   0.365607E+00   0.482880E+01
   0.165000E+04  -0.979229E-05   0.113060E-05   0.365619E+00   0.482880E+01
   0.166000E+04  -0.986689E-05   0.114247E-05   0.365632E+00   0.482880E+01
   0.167000E+04  -0.994053E-05   0.115427E-05   0.365644E+00   0.482880E+01
   0.168000E+04  -0.100131E-04   0.116602E-05   0.365656E+00   0.482880E+01
   0.169000E+04  -0.100847E-04   0.117769E-05   0.365668E+00   0.482880E+01
   0.170000E+04  -0.101550E-04   0.118928E-05   0.365679E+00   0.482880E+01
   0.171000E+04  -0.102241E-04   0.120079E-05   0.365691E+00   0.482880E+01
   0.172000E+04  -0.102919E-04   0.121222E-05   0.365702E+00   0.482880E+01
   0.173000E+04  -0.103582E-04   0.122354E-05   0.365714E+00   0.482880E+01
   0.174000E+04  -0.104230E-04   0.123477E-05   0.365725E+00   0.482880E+01
   0.175000E+04  -0.104862E-04   0.124589E-05   0.365736E+00   0.482880E+01
   0.176000E+04  -0.105476E-04   0.125689E-05   0.365747E+00   0.482880E+01
   0.177000E+04  -0.106073E-04   0.126778E-05   0.365758E+00   0.482880E+01
   0.178000E+04  -0.106650E-04   0.127855E-05   0.365769E+00   0.482880E+01
   0.179000E+04  -0.107206E-04   0.128918E-05   0.365779E+00   0.482880E+01
   0.180000E+04  -0.107742E-04   0.129969E-05   0.365790E+00   0.482880E+01
   0.181000E+04  -0.108255E-04   0.131005E-05   0.365800E+00   0.482880E+01
   0.182000E+04  -0.108746E-04   0.132028E-05   0.365810E+00   0.482880E+01
   0.183000E+04  -0.109212E-04   0.133036E-05   0.365821E+00   0.482880E+01
   0.184000E+04  -0.109655E-04   0.134029E-05   0.365831E+00   0.482880E+01
   0.185000E+04  -0.110072E-04   0.135008E-05   0.365840E+00   0.482880E+01
   0.186000E+04  -0.110464E-04   0.135972E-05   0.365850E+00   0.482880E+01
   0.187000E+04  -0.110829E-04   0.136920E-05   0.365860E+00   0.482880E+01
   0.188000E+04  -0.111169E-04   0.137853E-05   0.365869E+00   0.482880E+01
   0.189000E+04  -0.111482E-04   0.138771E-05   0.365879E+00   0.482880E+01
   0.190000E+04  -0.111769E-04   0.139673E-05   0.365888E+00   0.482880E+01
   0.191000E+04  -0.112030E-04   0.140561E-05   0.365897E+00   0.482880E+01
   0.192000E+04  -0.112265E-04   0.141434E-05   0.365906E+00   0.482880E+01
   0.193000E+04  -0.112474E-04   0.142292E-05   0.365915E+00   0.482880E+01
   0.194000E+04  -0.112657E-04   0.143136E-05   0.365924E+00   0.482880E+01
   0.195000E+04  -0.112816E-04   0.143967E-05   0.365933E+00   0.482880E+01
   0.196000E+04  -0.112950E-04   0.144785E-05   0.365942E+00   0.482880E+01
   0.197000E+04  -0.113061E-04   0.145590E-05   0.365951E+00   0.482880E+01
   0.198000E+04  -0.113148E-04   0.146383E-05   0.365959E+00   0.482880E+01
   0.199000E+04  -0.113212E-04   0.147164E-05   0.365968E+00   0.482880E+01
   0.200000E+04  -0.113254E-04   0.147934E-05   0.365976E+00   0.482880E+01
   0.201000E+04  -0.113274E-04   0.148695E-05   0.365985E+00   0.482880E+01
   0.202000E+04  -0.113273E-04   0.149445E-05   0.365993E+00   0.482880E+01
   0.203000E+04  -0.113251E-04   0.150186E-05   0.366002E+00   0.482880E+01
   0.204000E+04  -0.113209E-04   0.150919E-05   0.366010E+00   0.482880E+01
   0.205000E+04  -0.113146E-04   0.151643E-05   0.366018E+00   0.482880E+01
   0.206000E+04  -0.113062E-04   0.152359E-05   0.366026E+00   0.482880E+01
   0.207000E+04  -0.112958E-04   0.153068E-05   0.366034E+00   0.482880E+01
   0.208000E+04  -0.112832E-04   0.153770E-05   0.366042E+00   0.482880E+01
   0.209000E+04  -0.112685E-04   0.154465E-05   0.366050E+00   0.482880E+01
   0.210000E+04  -0.112516E-04   0.155154E-05   0.366058E+00   0.482880E+01
   0.211000E+04  -0.112324E-04   0.155836E-05   0.366065E+00   0.482880E+01
   0.212000E+04  -0.112108E-04   0.156512E-05   0.366073E+00   0.482880E+01
   0.213000E+04  -0.111867E-04   0.157182E-05   0.366081E+00   0.482880E+01
   0.214000E+04  -0.111601E-04   0.157846E-05   0.366088E+00   0.482880E+01
   0.215000E+04  -0.111309E-04   0.158504E-05   0.366095E+00   0.482880E+01
   0.216000E+04  -0.110988E-04   0.159156E-05   0.366103E+00   0.482880E+01
   0.217000E+04  -0.110638E-04   0.159801E-05   0.366110E+00   0.482880E+01
   0.218000E+04  -0.110258E-04   0.160441E-05   0.366117E+00   0.482880E+01
   0.219000E+04  -0.109845E-04   0.161074E-05   0.366124E+00   0.482880E+01
   0.220000E+04  -0.109400E-04   0.161701E-05   0.366131E+00   0.482880E+01
   0.221000E+04  -0.108920E-04   0.162321E-05   0.366137E+00   0.482880E+01
   0.222000E+04  -0.108404E-04   0.162935E-05   0.366144E+00   0.482880E+01
   0.223000E+04  -0.107850E-04   0.163542E-05   0.366151E+00   0.482880E+01
   0.224000E+04  -0.107258E-04   0.164143E-05   0.366157E+00   0.482880E+01
   0.225000E+04  -0.106626E-04   0.164737E-05   0.366164E+00   0.482880E+01
   0.226000E+04  -0.105953E-04   0.165324E-05   0.366170E+00   0.482880E+01
   0.227000E+04  -0.105237E-04   0.165904E-05   0.366176E+00   0.482880E+01
   0.228000E+04  -0.104477E-04   0.166478E-05   0.366183E+00   0.482880E+01
   0.229000E+04  -0.103672E-04   0.167045E-05   0.366189E+00   0.482880E+01
   0.230000E+04  -0.102821E-04   0.167606E-05   0.366195E+00   0.482880E+01
   0.231000E+04  -0.101923E-04   0.168160E-05   0.366201E+00   0.482880E+01
   0.232000E+04  -0.100977E-04   0.168708E-05   0.366206E+00   0.482880E+01
   0.233000E+04  -0.999817E-05   0.169250E-05   0.366212E+00   0.482880E+01
   0.234000E+04  -0.989363E-05   0.169786E-05   0.366218E+00   0.482880E+01
   0.235000E+04  -0.978400E-05   0.170316E-05   0.366223E+00   0.482880E+01
   0.236000E+04  -0.966920E-05   0.170841E-05   0.366229E+00   0.482880E+01
   0.237000E+04  -0.954915E-05   0.171360E-05   0.366234E+00   0.482880E+01
   0.238000E+04  -0.942379E-05   0.171875E-05   0.366240E+00   0.482880E+01
   0.239000E+04  -0.929305E-05   0.172385E-05   0.366245E+00   0.482880E+01
   0.240000E+04  -0.915688E-05   0.172890E-05   0.366250E+00   0.482880E+01
   0.241000E+04  -0.901522E-05   0.173392E-05   0.366255E+00   0.482880E+01
   0.242000E+04  -0.886803E-05   0.173890E-05   0.366260E+00   0.482880E+01
   0.243000E+04  -0.871526E-05   0.174384E-05   0.366265E+00   0.482880E+01
   0.244000E+04  -0.855688E-05   0.174876E-05   0.366270E+00   0.482880E+01
   0.245000E+04  -0.839286E-05   0.175365E-05   0.366275E+00   0.482880E+01
   0.246000E+04  -0.822317E-05   0.175853E-05   0.366279E+00   0.482880E+01
   0.247000E+04  -0.804779E-05   0.176339E-05   0.366284E+00   0.482880E+01
   0.248000E+04  -0.786670E-05   0.176823E-05   0.366288E+00   0.482880E+01
   0.249000E+04  -0.767989E-05   0.177308E-05   0.366293E+00   0.482880E+01
   0.250000E+04  -0.748736E-05   0.177791E-05   0.366297E+00   0.482880E+01
   0.251000E+04  -0.728908E-05   0.178276E-05   0.366302E+00   0.482880E+01
   0.252000E+04  -0.708507E-05   0.178761E-05   0.366306E+00   0.482880E+01
   0.253000E+04  -0.687532E-05   0.179248E-05   0.366310E+00   0.482880E+01
   0.254000E+04  -0.665983E-05   0.179736E-05   0.366314E+00   0.482880E+01
   0.255000E+04  -0.643862E-05   0.180227E-05   0.366318E+00   0.482880E+01
   0.256000E+04  -0.621168E-05   0.180720E-05   0.366322E+00   0.482880E+01
   0.257000E+04  -0.597904E-05   0.181217E-05   0.366326E+00   0.482880E+01
   0.258000E+04  -0.574069E-05   0.181718E-05   0.366330E+00   0.482880E+01
   0.259000E+04  -0.549666E-05   0.182224E-05   0.366334E+00   0.482880E+01
   0.260000E+04  -0.524695E-05   0.182734E-05   0.366338E+00   0.482880E+01
   0.261000E+04  -0.499159E-05   0.183250E-05   0.366342E+00   0.482880E+01
   0.262000E+04  -0.473058E-05   0.183771E-05   0.366345E+00   0.482880E+01
   0.263000E+04  -0.446394E-05   0.184299E-05   0.366349E+00   0.482880E+01
   0.264000E+04  -0.419168E-05   0.184833E-05   0.366353E+00   0.482880E+01
   0.265000E+04  -0.391382E-05   0.185374E-05   0.366357E+00   0.482880E+01
   0.266000E+04  -0.363035E-05   0.185923E-05   0.366360E+00   0.482880E+01
   0.267000E+04  -0.334129E-05   0.186480E-05   0.366364E+00   0.482880E+01
   0.268000E+04  -0.304664E-05   0.187045E-05   0.366368E+00   0.482880E+01
   0.269000E+04  -0.274641E-05   0.187618E-05   0.366371E+00   0.482880E+01
   0.270000E+04  -0.244059E-05   0.188200E-05   0.366375E+00   0.482880E+01
   0.271000E+04  -0.212920E-05   0.188792E-05   0.366378E+00   0.482880E+01
   0.272000E+04  -0.181223E-05   0.189392E-05   0.366381E+00   0.482880E+01
   0.273000E+04  -0.148968E-05   0.190003E-05   0.366385E+00   0.482880E+01
   0.274000E+04  -0.116158E-05   0.190623E-05   0.366388E+00   0.482880E+01
   0.275000E+04  -0.827916E-06   0.277539E-05   0.366391E+00   0.482880E+01
   0.276000E+04  -0.488706E-06   0.378520E-05   0.366395E+00   0.482880E+01
   0.277000E+04  -0.143961E-06   0.480993E-05   0.366398E+00   0.482880E+01
   0.278000E+04   0.206305E-06   0.584951E-05   0.366401E+00   0.482880E+01
   0.279000E+04   0.562074E-06   0.690381E-05   0.366404E+00   0.482880E+01
   0.280000E+04   0.923325E-06   0.797273E-05   0.366407E+00   0.482880E+01
   0.281000E+04   0.129003E-05   0.905613E-05   0.366410E+00   0.482880E+01
   0.282000E+04   0.166218E-05   0.101539E-04   0.366413E+00   0.482880E+01
   0.283000E+04   0.203972E-05   0.112658E-04   0.366416E+00   0.482880E+01
   0.284000E+04   0.242262E-05   0.123918E-04   0.366419E+00   0.482880E+01
   0.285000E+04   0.281086E-05   0.135316E-04   0.366422E+00   0.482880E+01
   0.286000E+04   0.320438E-05   0.146851E-04   0.366425E+00   0.482880E+01
   0.287000E+04   0.360314E-05   0.158520E-04   0.366428E+00   0.482880E+01
   0.288000E+04   0.400710E-05   0.170322E-04   0.366431E+00   0.482880E+01
   0.289000E+04   0.441620E-05   0.182255E-04   0.366434E+00   0.482880E+01
   0.290000E+04   0.483039E-05   0.194316E-04   0.366436E+00   0.482880E+01
   0.291000E+04   0.524960E-05   0.206502E-04   0.366439E+00   0.482880E+01
   0.292000E+04   0.567379E-05   0.218812E-04   0.366442E+00   0.482880E+01
   0.293000E+04   0.610289E-05   0.231243E-04   0.366445E+00   0.482880E+01
   0.294000E+04   0.653682E-05   0.243792E-04   0.366447E+00   0.482880E+01
   0.295000E+04   0.697552E-05   0.256456E-04   0.366450E+00   0.482880E+01
   0.296000E+04   0.741892E-05   0.269233E-04   0.366453E+00   0.482880E+01
   0.297000E+04   0.786693E-05   0.282119E-04   0.366455E+00   0.482880E+01
   0.298000E+04   0.831949E-05   0.295113E-04   0.366458E+00   0.482880E+01
   0.299000E+04   0.877650E-05   0.308210E-04   0.366460E+00   0.482880E+01
   0.300000E+04   0.923788E-05   0.321407E-04   0.366463E+00   0.482880E+01
   0.301000E+04   0.970354E-05   0.334703E-04   0.366465E+00   0.482880E+01
   0.302000E+04   0.101734E-04   0.348092E-04   0.366468E+00   0.482880E+01
   0.303000E+04   0.106473E-04   0.361573E-04   0.366470E+00   0.482880E+01
   0.304000E+04   0.111253E-04   0.375141E-04   0.366473E+00   0.482880E+01
   0.305000E+04   0.116071E-04   0.388794E-04   0.366475E+00   0.482880E+01
   0.306000E+04   0.120927E-04   0.402527E-04   0.366478E+00   0.482880E+01
   0.307000E+04   0.125820E-04   0.416339E-04   0.366480E+00   0.482880E+01
   0.308000E+04   0.130749E-04   0.430224E-04   0.366483E+00   0.482880E+01
   0.309000E+04   0.135713E-04   0.444181E-04   0.366485E+00   0.482880E+01
   0.310000E+04   0.140710E-04   0.458205E-04   0.366487E+00   0.482880E+01
   0.311000E+04   0.145741E-04   0.472293E-04   0.366490E+00   0.482880E+01
   0.312000E+04   0.150802E-04   0.486443E-04   0.366492E+00   0.482880E+01
   0.313000E+04   0.155895E-04   0.500651E-04   0.366494E+00   0.482880E+01
   0.314000E+04   0.161017E-04   0.514915E-04   0.366496E+00   0.482880E+01
   0.315000E+04   0.166167E-04   0.529230E-04   0.366499E+00   0.482880E+01
   0.316000E+04   0.171346E-04   0.543595E-04   0.366501E+00   0.482880E+01
   0.317000E+04   0.176551E-04   0.558007E-04   0.366503E+00   0.482880E+01
   0.318000E+04   0.181781E-04   0.572462E-04   0.366505E+00   0.482880E+01
   0.319000E+04   0.187036E-04   0.586960E-04   0.366507E+00   0.482880E+01
   0.320000E+04   0.192316E-04   0.601496E-04   0.366509E+00   0.482880E+01
   0.321000E+04   0.197618E-04   0.616070E-04   0.366511E+00   0.482880E+01
   0.322000E+04   0.202942E-04   0.630678E-04   0.366513E+00   0.482880E+01
   0.323000E+04   0.208287E-04   0.645320E-04   0.366515E+00   0.482880E+01
   0.324000E+04   0.213653E-04   0.659992E-04   0.366517E+00   0.482880E+01
   0.325000E+04   0.219039E-04   0.674693E-04   0.366519E+00   0.482880E+01
   0.326000E+04   0.224444E-04   0.689421E-04   0.366521E+00   0.482880E+01
   0.327000E+04   0.229866E-04   0.704175E-04   0.366523E+00   0.482880E+01
   0.328000E+04   0.235306E-04   0.718953E-04   0.366525E+00   0.482880E+01
   0.329000E+04   0.240763E-04   0.733753E-04   0.366527E+00   0.482880E+01
   0.330000E+04   0.246236E-04   0.748575E-04   0.366529E+00   0.482880E+01
   0.331000E+04   0.251725E-04   0.763415E-04   0.366530E+00   0.482880E+01
   0.332000E+04   0.257228E-04   0.778275E-04   0.366532E+00   0.482880E+01
   0.333000E+04   0.262745E-04   0.793151E-04   0.366534E+00   0.482880E+01
   0.334000E+04   0.268275E-04   0.808043E-04   0.366536E+00   0.482880E+01
   0.335000E+04   0.273818E-04   0.822950E-04   0.366538E+00   0.482880E+01
   0.336000E+04   0.279374E-04   0.837870E-04   0.366539E+00   0.482880E+01
   0.337000E+04   0.284942E-04   0.852803E-04   0.366541E+00   0.482880E+01
   0.338000E+04   0.290520E-04   0.867748E-04   0.366543E+00   0.482880E+01
   0.339000E+04   0.296109E-04   0.882703E-04   0.366544E+00   0.482880E+01
   0.340000E+04   0.301709E-04   0.897668E-04   0.366546E+00   0.482880E+01
   0.341000E+04   0.307318E-04   0.912642E-04   0.366548E+00   0.482880E+01
   0.342000E+04   0.312936E-04   0.927623E-04   0.366549E+00   0.482880E+01
   0.343000E+04   0.318563E-04   0.942612E-04   0.366551E+00   0.482880E+01
   0.344000E+04   0.324197E-04   0.957607E-04   0.366552E+00   0.482880E+01
   0.345000E+04   0.329840E-04   0.972607E-04   0.366554E+00   0.482880E+01
   0.346000E+04   0.335490E-04   0.987612E-04   0.366555E+00   0.482880E+01
   0.347000E+04   0.341147E-04   0.100262E-03   0.366557E+00   0.482880E+01
   0.348000E+04   0.346811E-04   0.101763E-03   0.366558E+00   0.482880E+01
   0.349000E+04   0.352480E-04   0.103265E-03   0.366560E+00   0.482880E+01
   0.350000E+04   0.358156E-04   0.104767E-03   0.366561E+00   0.482880E+01
   0.351000E+04   0.363836E-04   0.106269E-03   0.366563E+00   0.482880E+01
   0.352000E+04   0.369522E-04   0.107771E-03   0.366564E+00   0.482880E+01
   0.353000E+04   0.375212E-04   0.109272E-03   0.366566E+00   0.482880E+01
   0.354000E+04   0.380907E-04   0.110774E-03   0.366567E+00   0.482880E+01
   0.355000E+04   0.386605E-04   0.112276E-03   0.366568E+00   0.482880E+01
   0.356000E+04   0.392307E-04   0.113778E-03   0.366570E+00   0.482880E+01
   0.357000E+04   0.398012E-04   0.115280E-03   0.366571E+00   0.482880E+01
   0.358000E+04   0.403721E-04   0.116781E-03   0.366572E+00   0.482880E+01
   0.359000E+04   0.409432E-04   0.118282E-03   0.366574E+00   0.482880E+01
   0.360000E+04   0.415145E-04   0.119782E-03   0.366575E+00   0.482880E+01
   0.361000E+04   0.420860E-04   0.121283E-03   0.366576E+00   0.482880E+01
   0.362000E+04   0.426577E-04   0.122782E-03   0.366578E+00   0.482880E+01
   0.363000E+04   0.432295E-04   0.124282E-03   0.366579E+00   0.482880E+01
   0.364000E+04   0.438015E-04   0.125780E-03   0.366580E+00   0.482880E+01
   0.365000E+04   0.443735E-04   0.127278E-03   0.366581E+00   0.482880E+01
   0.366000E+04   0.449456E-04   0.128776E-03   0.366582E+00   0.482880E+01
   0.367000E+04   0.455177E-04   0.130272E-03   0.366584E+00   0.482880E+01
   0.368000E+04   0.460898E-04   0.131768E-03   0.366585E+00   0.482880E+01
   0.369000E+04   0.466619E-04   0.133263E-03   0.366586E+00   0.482880E+01
   0.370000E+04   0.472339E-04   0.134757E-03   0.366587E+00   0.482880E+01
   0.371000E+04   0.478058E-04   0.136250E-03   0.366588E+00   0.482880E+01
   0.372000E+04   0.483776E-04   0.137742E-03   0.366589E+00   0.482880E+01
   0.373000E+04   0.489492E-04   0.139233E-03   0.366591E+00   0.482880E+01
   0.374000E+04   0.495207E-04   0.140723E-03   0.366592E+00   0.482880E+01
   0.375000E+04   0.500919E-04   0.142212E-03   0.366593E+00   0.482880E+01
   0.376000E+04   0.506629E-04   0.143699E-03   0.366594E+00   0.482880E+01
   0.377000E+04   0.512336E-04   0.145185E-03   0.366595E+00   0.482880E+01
   0.378000E+04   0.518040E-04   0.146670E-03   0.366596E+00   0.482880E+01
   0.379000E+04   0.523741E-04   0.148153E-03   0.366597E+00   0.482880E+01
   0.380000E+04   0.529438E-04   0.149635E-03   0.366598E+00   0.482880E+01
   0.381000E+04   0.535131E-04   0.151115E-03   0.366599E+00   0.482880E+01
   0.382000E+04   0.540820E-04   0.152593E-03   0.366600E+00   0.482880E+01
   0.383000E+04   0.546504E-04   0.154070E-03   0.366601E+00   0.482880E+01
   0.384000E+04   0.552184E-04   0.155545E-03   0.366602E+00   0.482880E+01
   0.385000E+04   0.557857E-04   0.157018E-03   0.366603E+00   0.482880E+01
   0.386000E+04   0.563525E-04   0.158488E-03   0.366605E+00   0.482880E+01
   0.387000E+04   0.569186E-04   0.159957E-03   0.366605E+00   0.482880E+01
   0.388000E+04   0.574842E-04   0.161423E-03   0.366606E+00   0.482880E+01
   0.389000E+04   0.580491E-04   0.162888E-03   0.366607E+00   0.482880E+01
   0.390000E+04   0.586132E-04   0.164349E-03   0.366608E+00   0.482880E+01
   0.391000E+04   0.591764E-04   0.165808E-03   0.366610E+00   0.482880E+01
   0.392000E+04   0.597387E-04   0.167264E-03   0.366610E+00   0.482880E+01
   0.393000E+04   0.603002E-04   0.168718E-03   0.366611E+00   0.482880E+01