title="breakthrough data set at     5 wells"
variables="time(days)","cavg","cpk","upk","zswi"
zone i=     1295
   0.100000E+02   0.189170E-10   0.296001E-10   0.455367E+00   0.485826E+01
   0.200000E+02   0.446834E-10   0.684844E-10   0.367566E+00   0.483405E+01
   0.300000E+02   0.903250E-10   0.136481E-09   0.366924E+00   0.483405E+01
   0.400000E+02   0.166608E-09   0.248748E-09   0.366748E+00   0.483405E+01
   0.500000E+02   0.288584E-09   0.426120E-09   0.366629E+00   0.483405E+01
   0.600000E+02   0.477130E-09   0.699510E-09   0.366529E+00   0.483405E+01
   0.700000E+02   0.760742E-09   0.112108E-08   0.366434E+00   0.483405E+01
   0.800000E+02   0.117741E-08   0.174275E-08   0.366378E+00   0.483405E+01
   0.900000E+02   0.177701E-08   0.263994E-08   0.366331E+00   0.483405E+01
   0.100000E+03   0.262353E-08   0.390917E-08   0.366293E+00   0.483405E+01
   0.110000E+03   0.379730E-08   0.567114E-08   0.366261E+00   0.483405E+01
   0.120000E+03   0.539699E-08   0.807336E-08   0.366237E+00   0.483405E+01
   0.130000E+03   0.754105E-08   0.112917E-07   0.366243E+00   0.483405E+01
   0.140000E+03   0.103705E-07   0.155343E-07   0.366218E+00   0.483405E+01
   0.150000E+03   0.140476E-07   0.210379E-07   0.366200E+00   0.483405E+01
   0.160000E+03   0.187543E-07   0.280667E-07   0.366182E+00   0.483405E+01
   0.170000E+03   0.246948E-07   0.369124E-07   0.366185E+00   0.483405E+01
   0.180000E+03   0.320916E-07   0.478897E-07   0.366183E+00   0.483405E+01
   0.190000E+03   0.411832E-07   0.613311E-07   0.366184E+00   0.483405E+01
   0.200000E+03   0.522217E-07   0.775822E-07   0.366189E+00   0.483405E+01
   0.210000E+03   0.654687E-07   0.969958E-07   0.366197E+00   0.483405E+01
   0.220000E+03   0.811919E-07   0.119926E-06   0.366207E+00   0.483405E+01
   0.230000E+03   0.996607E-07   0.146720E-06   0.366218E+00   0.483405E+01
   0.240000E+03   0.121142E-06   0.177717E-06   0.366231E+00   0.483405E+01
   0.250000E+03   0.145898E-06   0.213234E-06   0.366245E+00   0.483405E+01
   0.260000E+03   0.174176E-06   0.253567E-06   0.366259E+00   0.483405E+01
   0.270000E+03   0.206211E-06   0.298980E-06   0.366273E+00   0.483405E+01
   0.280000E+03   0.242218E-06   0.349702E-06   0.366288E+00   0.483405E+01
   0.290000E+03   0.282386E-06   0.405917E-06   0.366303E+00   0.483405E+01
   0.300000E+03   0.326876E-06   0.467764E-06   0.366318E+00   0.483405E+01
   0.310000E+03   0.375818E-06   0.535327E-06   0.366333E+00   0.483405E+01
   0.320000E+03   0.429306E-06   0.608639E-06   0.366348E+00   0.483405E+01
   0.330000E+03   0.487397E-06   0.687674E-06   0.366363E+00   0.483405E+01
   0.340000E+03   0.550109E-06   0.772351E-06   0.366378E+00   0.483405E+01
   0.350000E+03   0.617420E-06   0.862533E-06   0.366392E+00   0.483405E+01
   0.360000E+03   0.689267E-06   0.958033E-06   0.366407E+00   0.483405E+01
   0.370000E+03   0.765551E-06   0.105862E-05   0.366422E+00   0.483405E+01
   0.380000E+03   0.846131E-06   0.116402E-05   0.366436E+00   0.483405E+01
   0.390000E+03   0.930840E-06   0.127392E-05   0.366450E+00   0.483405E+01
   0.400000E+03   0.101948E-05   0.138802E-05   0.366464E+00   0.483405E+01
   0.410000E+03   0.111183E-05   0.150599E-05   0.366478E+00   0.483405E+01
   0.420000E+03   0.120767E-05   0.162749E-05   0.366491E+00   0.483405E+01
   0.430000E+03   0.130674E-05   0.175222E-05   0.366504E+00   0.483405E+01
   0.440000E+03   0.140880E-05   0.187988E-05   0.366516E+00   0.483405E+01
   0.450000E+03   0.151359E-05   0.201016E-05   0.366528E+00   0.483405E+01
   0.460000E+03   0.162086E-05   0.214279E-05   0.366540E+00   0.483405E+01
   0.470000E+03   0.173033E-05   0.227753E-05   0.366550E+00   0.483405E+01
   0.480000E+03   0.184175E-05   0.241410E-05   0.366561E+00   0.483405E+01
   0.490000E+03   0.195484E-05   0.255228E-05   0.366571E+00   0.483405E+01
   0.500000E+03   0.206932E-05   0.269184E-05   0.366580E+00   0.483405E+01
   0.510000E+03   0.218494E-05   0.283256E-05   0.366589E+00   0.483405E+01
   0.520000E+03   0.230142E-05   0.297423E-05   0.366598E+00   0.483405E+01
   0.530000E+03   0.241849E-05   0.311668E-05   0.366607E+00   0.483405E+01
   0.540000E+03   0.253590E-05   0.325974E-05   0.366615E+00   0.483405E+01
   0.550000E+03   0.265340E-05   0.340324E-05   0.366623E+00   0.483405E+01
   0.560000E+03   0.277075E-05   0.356061E-05   0.366631E+00   0.483405E+01
   0.570000E+03   0.288773E-05   0.373684E-05   0.366639E+00   0.483405E+01
   0.580000E+03   0.300410E-05   0.391593E-05   0.366646E+00   0.483405E+01
   0.590000E+03   0.311966E-05   0.409774E-05   0.366653E+00   0.483405E+01
   0.600000E+03   0.323421E-05   0.428215E-05   0.366660E+00   0.483405E+01
   0.610000E+03   0.334755E-05   0.446905E-05   0.366667E+00   0.483405E+01
   0.620000E+03   0.345950E-05   0.465832E-05   0.366674E+00   0.483405E+01
   0.630000E+03   0.356988E-05   0.484983E-05   0.366680E+00   0.483405E+01
   0.640000E+03   0.367854E-05   0.504348E-05   0.366686E+00   0.483405E+01
   0.650000E+03   0.378531E-05   0.523916E-05   0.366692E+00   0.483405E+01
   0.660000E+03   0.389007E-05   0.543676E-05   0.366697E+00   0.483405E+01
   0.670000E+03   0.399269E-05   0.563618E-05   0.366702E+00   0.483405E+01
   0.680000E+03   0.409304E-05   0.583730E-05   0.366708E+00   0.483405E+01
   0.690000E+03   0.419103E-05   0.604004E-05   0.366712E+00   0.483405E+01
   0.700000E+03   0.428655E-05   0.624428E-05   0.366717E+00   0.483405E+01
   0.710000E+03   0.437951E-05   0.644992E-05   0.366722E+00   0.483405E+01
   0.720000E+03   0.446983E-05   0.665685E-05   0.366726E+00   0.483405E+01
   0.730000E+03   0.455740E-05   0.686494E-05   0.366731E+00   0.483405E+01
   0.740000E+03   0.464212E-05   0.707407E-05   0.366735E+00   0.483405E+01
   0.750000E+03   0.472386E-05   0.728411E-05   0.366739E+00   0.483405E+01
   0.760000E+03   0.480248E-05   0.749490E-05   0.366744E+00   0.483405E+01
   0.770000E+03   0.487780E-05   0.770631E-05   0.366748E+00   0.483405E+01
   0.780000E+03   0.494963E-05   0.791816E-05   0.366752E+00   0.483405E+01
   0.790000E+03   0.501777E-05   0.813029E-05   0.366756E+00   0.483405E+01
   0.800000E+03   0.508195E-05   0.834253E-05   0.366761E+00   0.483405E+01
   0.810000E+03   0.514192E-05   0.855469E-05   0.366765E+00   0.483405E+01
   0.820000E+03   0.519743E-05   0.876658E-05   0.366769E+00   0.483405E+01
   0.830000E+03   0.524819E-05   0.897802E-05   0.366774E+00   0.483405E+01
   0.840000E+03   0.529394E-05   0.918882E-05   0.366778E+00   0.483405E+01
   0.850000E+03   0.533442E-05   0.939877E-05   0.366782E+00   0.483405E+01
   0.860000E+03   0.536938E-05   0.960767E-05   0.366786E+00   0.483405E+01
   0.870000E+03   0.539858E-05   0.981533E-05   0.366790E+00   0.483405E+01
   0.880000E+03   0.542181E-05   0.100215E-04   0.366795E+00   0.483405E+01
   0.890000E+03   0.543884E-05   0.102261E-04   0.366799E+00   0.483405E+01
   0.900000E+03   0.544947E-05   0.104287E-04   0.366803E+00   0.483405E+01
   0.910000E+03   0.545351E-05   0.106293E-04   0.366807E+00   0.483405E+01
   0.920000E+03   0.545076E-05   0.108277E-04   0.366811E+00   0.483405E+01
   0.930000E+03   0.544106E-05   0.110235E-04   0.366815E+00   0.483405E+01
   0.940000E+03   0.542426E-05   0.112167E-04   0.366819E+00   0.483405E+01
   0.950000E+03   0.540022E-05   0.114070E-04   0.366823E+00   0.483405E+01
   0.960000E+03   0.536885E-05   0.115943E-04   0.366827E+00   0.483405E+01
   0.970000E+03   0.533011E-05   0.117783E-04   0.366831E+00   0.483405E+01
   0.980000E+03   0.528397E-05   0.119590E-04   0.366835E+00   0.483405E+01
   0.990000E+03   0.523046E-05   0.121362E-04   0.366839E+00   0.483405E+01
   0.100000E+04   0.516969E-05   0.123097E-04   0.366843E+00   0.483405E+01
   0.101000E+04   0.510179E-05   0.124795E-04   0.366847E+00   0.483405E+01
   0.102000E+04   0.502698E-05   0.126454E-04   0.366851E+00   0.483405E+01
   0.103000E+04   0.494554E-05   0.128074E-04   0.366855E+00   0.483405E+01
   0.104000E+04   0.485780E-05   0.129655E-04   0.366859E+00   0.483405E+01
   0.105000E+04   0.476414E-05   0.131194E-04   0.366863E+00   0.483405E+01
   0.106000E+04   0.466499E-05   0.132694E-04   0.366868E+00   0.483405E+01
   0.107000E+04   0.456079E-05   0.134152E-04   0.366872E+00   0.483405E+01
   0.108000E+04   0.445203E-05   0.135569E-04   0.366876E+00   0.483405E+01
   0.109000E+04   0.433920E-05   0.136946E-04   0.366880E+00   0.483405E+01
   0.110000E+04   0.422279E-05   0.138282E-04   0.366884E+00   0.483405E+01
   0.111000E+04   0.410328E-05   0.139577E-04   0.366889E+00   0.483405E+01
   0.112000E+04   0.398116E-05   0.140833E-04   0.366894E+00   0.483405E+01
   0.113000E+04   0.385689E-05   0.142049E-04   0.366898E+00   0.483405E+01
   0.114000E+04   0.373090E-05   0.143226E-04   0.366902E+00   0.483405E+01
   0.115000E+04   0.360363E-05   0.144365E-04   0.366906E+00   0.483405E+01
   0.116000E+04   0.347551E-05   0.145467E-04   0.366911E+00   0.483405E+01
   0.117000E+04   0.334694E-05   0.146532E-04   0.366917E+00   0.483405E+01
   0.118000E+04   0.321830E-05   0.147561E-04   0.366920E+00   0.483405E+01
   0.119000E+04   0.308995E-05   0.148555E-04   0.366922E+00   0.483405E+01
   0.120000E+04   0.296234E-05   0.149515E-04   0.366928E+00   0.483405E+01
   0.121000E+04   0.283970E-05   0.150447E-04   0.366942E+00   0.483405E+01
   0.122000E+04   0.271948E-05   0.151348E-04   0.366949E+00   0.483405E+01
   0.123000E+04   0.260185E-05   0.152220E-04   0.366946E+00   0.483405E+01
   0.124000E+04   0.248725E-05   0.153062E-04   0.366947E+00   0.483405E+01
   0.125000E+04   0.237625E-05   0.153878E-04   0.366966E+00   0.483405E+01
   0.126000E+04   0.226493E-05   0.154665E-04   0.366961E+00   0.483405E+01
   0.127000E+04   0.215707E-05   0.155428E-04   0.366965E+00   0.483405E+01
   0.128000E+04   0.205326E-05   0.156168E-04   0.366971E+00   0.483405E+01
   0.129000E+04   0.195406E-05   0.156889E-04   0.366978E+00   0.483405E+01
   0.130000E+04   0.185994E-05   0.157591E-04   0.366980E+00   0.483405E+01
   0.131000E+04   0.177136E-05   0.158277E-04   0.366981E+00   0.483405E+01
   0.132000E+04   0.168891E-05   0.158949E-04   0.366986E+00   0.483405E+01
   0.133000E+04   0.161858E-05   0.159611E-04   0.366999E+00   0.483405E+01
   0.134000E+04   0.155647E-05   0.160263E-04   0.367010E+00   0.483405E+01
   0.135000E+04   0.150260E-05   0.160906E-04   0.367008E+00   0.483405E+01
   0.136000E+04   0.145736E-05   0.161540E-04   0.367007E+00   0.483405E+01
   0.137000E+04   0.142130E-05   0.162167E-04   0.367014E+00   0.483405E+01
   0.138000E+04   0.139496E-05   0.162790E-04   0.367027E+00   0.483405E+01
   0.139000E+04   0.137855E-05   0.163410E-04   0.367036E+00   0.483405E+01
   0.140000E+04   0.137211E-05   0.164026E-04   0.367037E+00   0.483405E+01
   0.141000E+04   0.137581E-05   0.164641E-04   0.367036E+00   0.483405E+01
   0.142000E+04   0.138995E-05   0.165256E-04   0.367038E+00   0.483405E+01
   0.143000E+04   0.141494E-05   0.165872E-04   0.367054E+00   0.483405E+01
   0.144000E+04   0.144463E-05   0.166489E-04   0.367049E+00   0.483405E+01
   0.145000E+04   0.148460E-05   0.167110E-04   0.367053E+00   0.483405E+01
   0.146000E+04   0.153517E-05   0.167735E-04   0.367059E+00   0.483405E+01
   0.147000E+04   0.159650E-05   0.168365E-04   0.367064E+00   0.483405E+01
   0.148000E+04   0.166859E-05   0.169000E-04   0.367066E+00   0.483405E+01
   0.149000E+04   0.175149E-05   0.169642E-04   0.367067E+00   0.483405E+01
   0.150000E+04   0.184532E-05   0.170291E-04   0.367073E+00   0.483405E+01
   0.151000E+04   0.195660E-05   0.170944E-04   0.367086E+00   0.483405E+01
   0.152000E+04   0.207904E-05   0.171606E-04   0.367093E+00   0.483405E+01
   0.153000E+04   0.221196E-05   0.172274E-04   0.367090E+00   0.483405E+01
   0.154000E+04   0.235500E-05   0.172951E-04   0.367089E+00   0.483405E+01
   0.155000E+04   0.250819E-05   0.173637E-04   0.367099E+00   0.483405E+01
   0.156000E+04   0.267129E-05   0.174333E-04   0.367112E+00   0.483405E+01
   0.157000E+04   0.284374E-05   0.175042E-04   0.367119E+00   0.483405E+01
   0.158000E+04   0.302491E-05   0.175762E-04   0.367118E+00   0.483405E+01
   0.159000E+04   0.321440E-05   0.176495E-04   0.367116E+00   0.483405E+01
   0.160000E+04   0.341208E-05   0.177242E-04   0.367120E+00   0.483405E+01
   0.161000E+04   0.361798E-05   0.178005E-04   0.367133E+00   0.483405E+01
   0.162000E+04   0.383166E-05   0.178784E-04   0.367142E+00   0.483405E+01
   0.163000E+04   0.405249E-05   0.179580E-04   0.367143E+00   0.483405E+01
   0.164000E+04   0.428002E-05   0.180391E-04   0.367140E+00   0.483405E+01
   0.165000E+04   0.451398E-05   0.181219E-04   0.367140E+00   0.483405E+01
   0.166000E+04   0.475470E-05   0.182068E-04   0.367156E+00   0.483405E+01
   0.167000E+04   0.499544E-05   0.182946E-04   0.367151E+00   0.483405E+01
   0.168000E+04   0.524199E-05   0.183847E-04   0.367155E+00   0.483405E+01
   0.169000E+04   0.549437E-05   0.184768E-04   0.367160E+00   0.483405E+01
   0.170000E+04   0.575242E-05   0.185710E-04   0.367164E+00   0.483405E+01
   0.171000E+04   0.601582E-05   0.186673E-04   0.367166E+00   0.483405E+01
   0.172000E+04   0.628427E-05   0.187656E-04   0.367166E+00   0.483405E+01
   0.173000E+04   0.655763E-05   0.188659E-04   0.367170E+00   0.483405E+01
   0.174000E+04   0.684236E-05   0.189668E-04   0.367181E+00   0.483405E+01
   0.175000E+04   0.713159E-05   0.191486E-04   0.367190E+00   0.483405E+01
   0.176000E+04   0.742437E-05   0.194376E-04   0.367185E+00   0.483405E+01
   0.177000E+04   0.772030E-05   0.197296E-04   0.367182E+00   0.483405E+01
   0.178000E+04   0.801957E-05   0.200250E-04   0.367189E+00   0.483405E+01
   0.179000E+04   0.832235E-05   0.203242E-04   0.367203E+00   0.483405E+01
   0.180000E+04   0.862845E-05   0.206274E-04   0.367211E+00   0.483405E+01
   0.181000E+04   0.893761E-05   0.209354E-04   0.367210E+00   0.483405E+01
   0.182000E+04   0.924978E-05   0.212485E-04   0.367206E+00   0.483405E+01
   0.183000E+04   0.956518E-05   0.215671E-04   0.367208E+00   0.483405E+01
   0.184000E+04   0.988423E-05   0.218910E-04   0.367220E+00   0.483405E+01
   0.185000E+04   0.102069E-04   0.222203E-04   0.367226E+00   0.483405E+01
   0.186000E+04   0.105326E-04   0.225548E-04   0.367227E+00   0.483405E+01
   0.187000E+04   0.108609E-04   0.228949E-04   0.367224E+00   0.483405E+01
   0.188000E+04   0.111924E-04   0.232413E-04   0.367219E+00   0.483405E+01
   0.189000E+04   0.115283E-04   0.235953E-04   0.367225E+00   0.483405E+01
   0.190000E+04   0.118694E-04   0.239588E-04   0.367237E+00   0.483405E+01
   0.191000E+04   0.122164E-04   0.243335E-04   0.367245E+00   0.483405E+01
   0.192000E+04   0.125697E-04   0.247200E-04   0.367244E+00   0.483405E+01
   0.193000E+04   0.129294E-04   0.251172E-04   0.367238E+00   0.483405E+01
   0.194000E+04   0.132952E-04   0.255235E-04   0.367236E+00   0.483405E+01
   0.195000E+04   0.136665E-04   0.259378E-04   0.367248E+00   0.483405E+01
   0.196000E+04   0.140429E-04   0.263592E-04   0.367257E+00   0.483405E+01
   0.197000E+04   0.144248E-04   0.267879E-04   0.367256E+00   0.483405E+01
   0.198000E+04   0.148126E-04   0.272246E-04   0.367250E+00   0.483405E+01
   0.199000E+04   0.152071E-04   0.276712E-04   0.367247E+00   0.483405E+01
   0.200000E+04   0.156098E-04   0.281275E-04   0.367270E+00   0.483405E+01
   0.201000E+04   0.160160E-04   0.285974E-04   0.367260E+00   0.483405E+01
   0.202000E+04   0.164295E-04   0.290773E-04   0.367260E+00   0.483405E+01
   0.203000E+04   0.168506E-04   0.295661E-04   0.367265E+00   0.483405E+01
   0.204000E+04   0.172798E-04   0.300633E-04   0.367271E+00   0.483405E+01
   0.205000E+04   0.177168E-04   0.305677E-04   0.367272E+00   0.483405E+01
   0.206000E+04   0.181613E-04   0.310777E-04   0.367267E+00   0.483405E+01
   0.207000E+04   0.186126E-04   0.315911E-04   0.367266E+00   0.483405E+01
   0.208000E+04   0.190741E-04   0.321029E-04   0.367273E+00   0.483405E+01
   0.209000E+04   0.195421E-04   0.326154E-04   0.367285E+00   0.483405E+01
   0.210000E+04   0.200160E-04   0.331282E-04   0.367281E+00   0.483405E+01
   0.211000E+04   0.204956E-04   0.336413E-04   0.367274E+00   0.483405E+01
   0.212000E+04   0.209811E-04   0.341550E-04   0.367275E+00   0.483405E+01
   0.213000E+04   0.214727E-04   0.346691E-04   0.367289E+00   0.483405E+01
   0.214000E+04   0.219701E-04   0.351831E-04   0.367296E+00   0.483405E+01
   0.215000E+04   0.224721E-04   0.356957E-04   0.367295E+00   0.483405E+01
   0.216000E+04   0.229777E-04   0.362056E-04   0.367288E+00   0.483405E+01
   0.217000E+04   0.234862E-04   0.367124E-04   0.367283E+00   0.483405E+01
   0.218000E+04   0.239984E-04   0.372168E-04   0.367290E+00   0.483405E+01
   0.219000E+04   0.245153E-04   0.377220E-04   0.367302E+00   0.483405E+01
   0.220000E+04   0.250380E-04   0.382318E-04   0.367309E+00   0.483405E+01
   0.221000E+04   0.255675E-04   0.387486E-04   0.367306E+00   0.483405E+01
   0.222000E+04   0.261041E-04   0.392726E-04   0.367298E+00   0.483405E+01
   0.223000E+04   0.266471E-04   0.398016E-04   0.367297E+00   0.483405E+01
   0.224000E+04   0.271957E-04   0.403339E-04   0.367309E+00   0.483405E+01
   0.225000E+04   0.277494E-04   0.408686E-04   0.367318E+00   0.483405E+01
   0.226000E+04   0.283081E-04   0.414061E-04   0.367317E+00   0.483405E+01
   0.227000E+04   0.288727E-04   0.419483E-04   0.367309E+00   0.483405E+01
   0.228000E+04   0.294444E-04   0.424979E-04   0.367306E+00   0.483405E+01
   0.229000E+04   0.300250E-04   0.431927E-04   0.367318E+00   0.483405E+01
   0.230000E+04   0.306155E-04   0.440239E-04   0.367330E+00   0.483405E+01
   0.231000E+04   0.312156E-04   0.448701E-04   0.367333E+00   0.483405E+01
   0.232000E+04   0.318236E-04   0.457300E-04   0.367326E+00   0.483405E+01
   0.233000E+04   0.324382E-04   0.466014E-04   0.367318E+00   0.483405E+01
   0.234000E+04   0.330588E-04   0.474823E-04   0.367318E+00   0.483405E+01
   0.235000E+04   0.336861E-04   0.483714E-04   0.367330E+00   0.483405E+01
   0.236000E+04   0.343209E-04   0.492701E-04   0.367339E+00   0.483405E+01
   0.237000E+04   0.349645E-04   0.501813E-04   0.367341E+00   0.483405E+01
   0.238000E+04   0.356178E-04   0.511074E-04   0.367335E+00   0.483405E+01
   0.239000E+04   0.362808E-04   0.520490E-04   0.367329E+00   0.483405E+01
   0.240000E+04   0.369525E-04   0.530041E-04   0.367334E+00   0.483405E+01
   0.241000E+04   0.376311E-04   0.539705E-04   0.367344E+00   0.483405E+01
   0.242000E+04   0.383158E-04   0.549465E-04   0.367349E+00   0.483405E+01
   0.243000E+04   0.390061E-04   0.559307E-04   0.367344E+00   0.483405E+01
   0.244000E+04   0.397027E-04   0.569232E-04   0.367336E+00   0.483405E+01
   0.245000E+04   0.404071E-04   0.579255E-04   0.367338E+00   0.483405E+01
   0.246000E+04   0.411207E-04   0.589404E-04   0.367352E+00   0.483405E+01
   0.247000E+04   0.418441E-04   0.599698E-04   0.367360E+00   0.483405E+01
   0.248000E+04   0.425764E-04   0.610135E-04   0.367357E+00   0.483405E+01
   0.249000E+04   0.433155E-04   0.620695E-04   0.367348E+00   0.483405E+01
   0.250000E+04   0.440603E-04   0.631349E-04   0.367343E+00   0.483405E+01
   0.251000E+04   0.448105E-04   0.642075E-04   0.367351E+00   0.483405E+01
   0.252000E+04   0.455664E-04   0.652869E-04   0.367361E+00   0.483405E+01
   0.253000E+04   0.463292E-04   0.663746E-04   0.367367E+00   0.483405E+01
   0.254000E+04   0.471002E-04   0.674738E-04   0.367364E+00   0.483405E+01
   0.255000E+04   0.478802E-04   0.685870E-04   0.367356E+00   0.483405E+01
   0.256000E+04   0.486690E-04   0.697135E-04   0.367354E+00   0.483405E+01
   0.257000E+04   0.494649E-04   0.708514E-04   0.367365E+00   0.483405E+01
   0.258000E+04   0.502666E-04   0.719987E-04   0.367374E+00   0.483405E+01
   0.259000E+04   0.510732E-04   0.731535E-04   0.367373E+00   0.483405E+01
   0.260000E+04   0.518846E-04   0.743150E-04   0.367365E+00   0.483405E+01
   0.261000E+04   0.527015E-04   0.754834E-04   0.367359E+00   0.483405E+01
   0.262000E+04   0.535256E-04   0.766603E-04   0.367368E+00   0.483405E+01
   0.263000E+04   0.543580E-04   0.778486E-04   0.367380E+00   0.483405E+01
   0.264000E+04   0.551990E-04   0.790498E-04   0.367384E+00   0.483405E+01
   0.265000E+04   0.560470E-04   0.802630E-04   0.367377E+00   0.483405E+01
   0.266000E+04   0.569003E-04   0.814859E-04   0.367368E+00   0.483405E+01
   0.267000E+04   0.577579E-04   0.827156E-04   0.367368E+00   0.483405E+01
   0.268000E+04   0.586196E-04   0.839501E-04   0.367380E+00   0.483405E+01
   0.269000E+04   0.594860E-04   0.851899E-04   0.367389E+00   0.483405E+01
   0.270000E+04   0.603584E-04   0.864370E-04   0.367390E+00   0.483405E+01
   0.271000E+04   0.612379E-04   0.876945E-04   0.367383E+00   0.483405E+01
   0.272000E+04   0.621250E-04   0.889636E-04   0.367376E+00   0.483405E+01
   0.273000E+04   0.630186E-04   0.902428E-04   0.367381E+00   0.483405E+01
   0.274000E+04   0.639171E-04   0.915302E-04   0.367391E+00   0.483405E+01
   0.275000E+04   0.648193E-04   0.928239E-04   0.367398E+00   0.483405E+01
   0.276000E+04   0.657248E-04   0.941226E-04   0.367393E+00   0.483405E+01
   0.277000E+04   0.666337E-04   0.954257E-04   0.367384E+00   0.483405E+01
   0.278000E+04   0.675472E-04   0.967339E-04   0.367383E+00   0.483405E+01
   0.279000E+04   0.684665E-04   0.980492E-04   0.367396E+00   0.483405E+01
   0.280000E+04   0.693926E-04   0.993741E-04   0.367405E+00   0.483405E+01
   0.281000E+04   0.703247E-04   0.100709E-03   0.367404E+00   0.483405E+01
   0.282000E+04   0.712612E-04   0.102052E-03   0.367395E+00   0.483405E+01
   0.283000E+04   0.722006E-04   0.103972E-03   0.367389E+00   0.483405E+01
   0.284000E+04   0.731425E-04   0.106076E-03   0.367395E+00   0.483405E+01
   0.285000E+04   0.740871E-04   0.108189E-03   0.367406E+00   0.483405E+01
   0.286000E+04   0.750354E-04   0.110310E-03   0.367412E+00   0.483405E+01
   0.287000E+04   0.759890E-04   0.112440E-03   0.367409E+00   0.483405E+01
   0.288000E+04   0.769487E-04   0.114580E-03   0.367400E+00   0.483405E+01
   0.289000E+04   0.779141E-04   0.116730E-03   0.367395E+00   0.483405E+01
   0.290000E+04   0.788837E-04   0.118892E-03   0.367405E+00   0.483405E+01
   0.291000E+04   0.798561E-04   0.121063E-03   0.367415E+00   0.483405E+01
   0.292000E+04   0.808309E-04   0.123243E-03   0.367416E+00   0.483405E+01
   0.293000E+04   0.818082E-04   0.125430E-03   0.367408E+00   0.483405E+01
   0.294000E+04   0.827890E-04   0.127624E-03   0.367400E+00   0.483405E+01
   0.295000E+04   0.837746E-04   0.129826E-03   0.367405E+00   0.483405E+01
   0.296000E+04   0.847660E-04   0.132038E-03   0.367417E+00   0.483405E+01
   0.297000E+04   0.857633E-04   0.134261E-03   0.367422E+00   0.483405E+01
   0.298000E+04   0.867651E-04   0.136495E-03   0.367417E+00   0.483405E+01
   0.299000E+04   0.877699E-04   0.138737E-03   0.367407E+00   0.483405E+01
   0.300000E+04   0.887768E-04   0.140988E-03   0.367404E+00   0.483405E+01
   0.301000E+04   0.897856E-04   0.143246E-03   0.367414E+00   0.483405E+01
   0.302000E+04   0.907973E-04   0.145512E-03   0.367423E+00   0.483405E+01
   0.303000E+04   0.918134E-04   0.147785E-03   0.367426E+00   0.483405E+01
   0.304000E+04   0.928350E-04   0.150066E-03   0.367418E+00   0.483405E+01
   0.305000E+04   0.938622E-04   0.152357E-03   0.367408E+00   0.483405E+01
   0.306000E+04   0.948932E-04   0.154657E-03   0.367409E+00   0.483405E+01
   0.307000E+04   0.959265E-04   0.156965E-03   0.367421E+00   0.483405E+01
   0.308000E+04   0.969611E-04   0.159280E-03   0.367429E+00   0.483405E+01
   0.309000E+04   0.979971E-04   0.161602E-03   0.367426E+00   0.483405E+01
   0.310000E+04   0.990352E-04   0.163928E-03   0.367416E+00   0.483405E+01
   0.311000E+04   0.100077E-03   0.166260E-03   0.367411E+00   0.483405E+01
   0.312000E+04   0.101122E-03   0.168598E-03   0.367419E+00   0.483405E+01
   0.313000E+04   0.102172E-03   0.170944E-03   0.367428E+00   0.483405E+01
   0.314000E+04   0.103225E-03   0.173296E-03   0.367431E+00   0.483405E+01
   0.315000E+04   0.104278E-03   0.175654E-03   0.367424E+00   0.483405E+01
   0.316000E+04   0.105333E-03   0.178015E-03   0.367415E+00   0.483405E+01
   0.317000E+04   0.106387E-03   0.180380E-03   0.367415E+00   0.483405E+01
   0.318000E+04   0.107442E-03   0.182748E-03   0.367426E+00   0.483405E+01
   0.319000E+04   0.108499E-03   0.185118E-03   0.367434E+00   0.483405E+01
   0.320000E+04   0.109559E-03   0.187491E-03   0.367433E+00   0.483405E+01
   0.321000E+04   0.110621E-03   0.189869E-03   0.367421E+00   0.483405E+01
   0.322000E+04   0.111685E-03   0.192251E-03   0.367413E+00   0.483405E+01
   0.323000E+04   0.112749E-03   0.194635E-03   0.367421E+00   0.483405E+01
   0.324000E+04   0.113812E-03   0.197020E-03   0.367432E+00   0.483405E+01
   0.325000E+04   0.114873E-03   0.199405E-03   0.367437E+00   0.483405E+01
   0.326000E+04   0.115934E-03   0.201790E-03   0.367431E+00   0.483405E+01
   0.327000E+04   0.116996E-03   0.204175E-03   0.367420E+00   0.483405E+01
   0.328000E+04   0.118059E-03   0.206561E-03   0.367418E+00   0.483405E+01
   0.329000E+04   0.119124E-03   0.208947E-03   0.367428E+00   0.483405E+01
   0.330000E+04   0.120188E-03   0.211335E-03   0.367436E+00   0.483405E+01
   0.331000E+04   0.121250E-03   0.213721E-03   0.367436E+00   0.483405E+01
   0.332000E+04   0.122310E-03   0.216107E-03   0.367427E+00   0.483405E+01
   0.333000E+04   0.123368E-03   0.218489E-03   0.367419E+00   0.483405E+01
   0.334000E+04   0.124424E-03   0.220869E-03   0.367425E+00   0.483405E+01
   0.335000E+04   0.125480E-03   0.223245E-03   0.367435E+00   0.483405E+01
   0.336000E+04   0.126535E-03   0.225618E-03   0.367441E+00   0.483405E+01
   0.337000E+04   0.127592E-03   0.227991E-03   0.367435E+00   0.483405E+01
   0.338000E+04   0.128646E-03   0.230361E-03   0.367423E+00   0.483405E+01
   0.339000E+04   0.129698E-03   0.232728E-03   0.367421E+00   0.483405E+01
   0.340000E+04   0.130745E-03   0.235090E-03   0.367431E+00   0.483405E+01
   0.341000E+04   0.131788E-03   0.237446E-03   0.367441E+00   0.483405E+01
   0.342000E+04   0.132828E-03   0.239796E-03   0.367442E+00   0.483405E+01
   0.343000E+04   0.133868E-03   0.242140E-03   0.367434E+00   0.483405E+01
   0.344000E+04   0.134907E-03   0.244479E-03   0.367423E+00   0.483405E+01
   0.345000E+04   0.135946E-03   0.246814E-03   0.367425E+00   0.483405E+01
   0.346000E+04   0.136982E-03   0.249143E-03   0.367436E+00   0.483405E+01
   0.347000E+04   0.138013E-03   0.251466E-03   0.367444E+00   0.483405E+01
   0.348000E+04   0.139039E-03   0.253783E-03   0.367441E+00   0.483405E+01
   0.349000E+04   0.140062E-03   0.256091E-03   0.367430E+00   0.483405E+01
   0.350000E+04   0.141081E-03   0.258392E-03   0.367424E+00   0.483405E+01
   0.351000E+04   0.142098E-03   0.260684E-03   0.367433E+00   0.483405E+01
   0.352000E+04   0.143114E-03   0.262968E-03   0.367443E+00   0.483405E+01
   0.353000E+04   0.144128E-03   0.265246E-03   0.367445E+00   0.483405E+01
   0.354000E+04   0.145141E-03   0.267519E-03   0.367436E+00   0.483405E+01
   0.355000E+04   0.146149E-03   0.269784E-03   0.367427E+00   0.483405E+01
   0.356000E+04   0.147153E-03   0.272041E-03   0.367429E+00   0.483405E+01
   0.357000E+04   0.148151E-03   0.274288E-03   0.367440E+00   0.483405E+01
   0.358000E+04   0.149145E-03   0.276525E-03   0.367447E+00   0.483405E+01
   0.359000E+04   0.150138E-03   0.278754E-03   0.367444E+00   0.483405E+01
   0.360000E+04   0.151129E-03   0.280975E-03   0.367433E+00   0.483405E+01
   0.361000E+04   0.152120E-03   0.283190E-03   0.367425E+00   0.483405E+01
   0.362000E+04   0.153107E-03   0.285396E-03   0.367432E+00   0.483405E+01
   0.363000E+04   0.154089E-03   0.287594E-03   0.367444E+00   0.483405E+01
   0.364000E+04   0.155067E-03   0.289784E-03   0.367449E+00   0.483405E+01
   0.365000E+04   0.156040E-03   0.291965E-03   0.367442E+00   0.483405E+01
   0.366000E+04   0.157010E-03   0.294136E-03   0.367431E+00   0.483405E+01
   0.367000E+04   0.157978E-03   0.296299E-03   0.367429E+00   0.483405E+01
   0.368000E+04   0.158944E-03   0.298452E-03   0.367439E+00   0.483405E+01
   0.369000E+04   0.159908E-03   0.300597E-03   0.367446E+00   0.483405E+01
   0.370000E+04   0.160867E-03   0.302735E-03   0.367446E+00   0.483405E+01
   0.371000E+04   0.161823E-03   0.304865E-03   0.367437E+00   0.483405E+01
   0.372000E+04   0.162774E-03   0.306986E-03   0.367429E+00   0.483405E+01
   0.373000E+04   0.163720E-03   0.309098E-03   0.367434E+00   0.483405E+01
   0.374000E+04   0.164662E-03   0.311199E-03   0.367445E+00   0.483405E+01
   0.375000E+04   0.165602E-03   0.313290E-03   0.367450E+00   0.483405E+01
   0.376000E+04   0.166539E-03   0.315373E-03   0.367443E+00   0.483405E+01
   0.377000E+04   0.167475E-03   0.317449E-03   0.367430E+00   0.483405E+01
   0.378000E+04   0.168406E-03   0.319516E-03   0.367427E+00   0.483405E+01
   0.379000E+04   0.169331E-03   0.321574E-03   0.367439E+00   0.483405E+01
   0.380000E+04   0.170250E-03   0.323621E-03   0.367449E+00   0.483405E+01
   0.381000E+04   0.171164E-03   0.325659E-03   0.367450E+00   0.483405E+01
   0.382000E+04   0.172075E-03   0.327686E-03   0.367440E+00   0.483405E+01
   0.383000E+04   0.172984E-03   0.329704E-03   0.367429E+00   0.483405E+01
   0.384000E+04   0.173891E-03   0.331713E-03   0.367432E+00   0.483405E+01
   0.385000E+04   0.174793E-03   0.333711E-03   0.367442E+00   0.483405E+01
   0.386000E+04   0.175690E-03   0.335700E-03   0.367449E+00   0.483405E+01
   0.387000E+04   0.176581E-03   0.337679E-03   0.367446E+00   0.483405E+01
   0.388000E+04   0.177467E-03   0.339649E-03   0.367435E+00   0.483405E+01
   0.389000E+04   0.178347E-03   0.341608E-03   0.367430E+00   0.483405E+01
   0.390000E+04   0.179223E-03   0.343555E-03   0.367439E+00   0.483405E+01
   0.391000E+04   0.180096E-03   0.345490E-03   0.367448E+00   0.483405E+01
   0.392000E+04   0.180966E-03   0.347414E-03   0.367449E+00   0.483405E+01
   0.393000E+04   0.181833E-03   0.349330E-03   0.367440E+00   0.483405E+01