title="breakthrough data set at     5 wells"
variables="time(days)","cavg","cpk","upk","zswi"
zone i=     1295
   0.100000E+02   0.564482E-09   0.106250E-08   0.451393E+00   0.484821E+01
   0.200000E+02   0.121359E-08   0.249722E-08   0.366978E+00   0.482958E+01
   0.300000E+02   0.234413E-08   0.502213E-08   0.366800E+00   0.482958E+01
   0.400000E+02   0.417767E-08   0.914064E-08   0.367058E+00   0.482958E+01
   0.500000E+02   0.697767E-08   0.154556E-07   0.367347E+00   0.482958E+01
   0.600000E+02   0.110492E-07   0.246697E-07   0.367648E+00   0.482958E+01
   0.700000E+02   0.167332E-07   0.375724E-07   0.367957E+00   0.482958E+01
   0.800000E+02   0.244004E-07   0.550256E-07   0.368262E+00   0.482958E+01
   0.900000E+02   0.344405E-07   0.779356E-07   0.368560E+00   0.482958E+01
   0.100000E+03   0.472524E-07   0.107226E-06   0.368847E+00   0.482958E+01
   0.110000E+03   0.632330E-07   0.143810E-06   0.369120E+00   0.482958E+01
   0.120000E+03   0.827673E-07   0.188558E-06   0.369377E+00   0.482958E+01
   0.130000E+03   0.106218E-06   0.242273E-06   0.369621E+00   0.482958E+01
   0.140000E+03   0.133921E-06   0.305671E-06   0.369850E+00   0.482958E+01
   0.150000E+03   0.166320E-06   0.379653E-06   0.369833E+00   0.482958E+01
   0.160000E+03   0.203567E-06   0.464488E-06   0.370066E+00   0.482958E+01
   0.170000E+03   0.245890E-06   0.560566E-06   0.370282E+00   0.482958E+01
   0.180000E+03   0.293480E-06   0.668160E-06   0.370485E+00   0.482958E+01
   0.190000E+03   0.346488E-06   0.787427E-06   0.370674E+00   0.482958E+01
   0.200000E+03   0.405029E-06   0.918414E-06   0.370853E+00   0.482958E+01
   0.210000E+03   0.469179E-06   0.106106E-05   0.371022E+00   0.482958E+01
   0.220000E+03   0.538980E-06   0.121520E-05   0.371184E+00   0.482958E+01
   0.230000E+03   0.614437E-06   0.138057E-05   0.371337E+00   0.482958E+01
   0.240000E+03   0.695521E-06   0.155684E-05   0.371484E+00   0.482958E+01
   0.250000E+03   0.782168E-06   0.174356E-05   0.371625E+00   0.482958E+01
   0.260000E+03   0.874278E-06   0.194024E-05   0.371760E+00   0.482958E+01
   0.270000E+03   0.971713E-06   0.214628E-05   0.371890E+00   0.482958E+01
   0.280000E+03   0.107430E-05   0.236102E-05   0.372015E+00   0.482958E+01
   0.290000E+03   0.118181E-05   0.258373E-05   0.372136E+00   0.482958E+01
   0.300000E+03   0.129399E-05   0.281359E-05   0.372253E+00   0.482958E+01
   0.310000E+03   0.141051E-05   0.304974E-05   0.372366E+00   0.482958E+01
   0.320000E+03   0.153102E-05   0.329121E-05   0.372476E+00   0.482958E+01
   0.330000E+03   0.165510E-05   0.353697E-05   0.372582E+00   0.482958E+01
   0.340000E+03   0.178227E-05   0.378592E-05   0.372686E+00   0.482958E+01
   0.350000E+03   0.191200E-05   0.403686E-05   0.372786E+00   0.482958E+01
   0.360000E+03   0.204372E-05   0.428854E-05   0.372884E+00   0.482958E+01
   0.370000E+03   0.217677E-05   0.453963E-05   0.372980E+00   0.482958E+01
   0.380000E+03   0.231050E-05   0.478875E-05   0.373072E+00   0.482958E+01
   0.390000E+03   0.244418E-05   0.503447E-05   0.373163E+00   0.482958E+01
   0.400000E+03   0.257707E-05   0.527537E-05   0.373251E+00   0.482958E+01
   0.410000E+03   0.270839E-05   0.551000E-05   0.373337E+00   0.482958E+01
   0.420000E+03   0.283736E-05   0.573696E-05   0.373421E+00   0.482958E+01
   0.430000E+03   0.296320E-05   0.595486E-05   0.373502E+00   0.482958E+01
   0.440000E+03   0.308511E-05   0.616240E-05   0.373582E+00   0.482958E+01
   0.450000E+03   0.320232E-05   0.635831E-05   0.373659E+00   0.482958E+01
   0.460000E+03   0.331407E-05   0.654142E-05   0.373734E+00   0.482958E+01
   0.470000E+03   0.341961E-05   0.671061E-05   0.373807E+00   0.482958E+01
   0.480000E+03   0.351824E-05   0.686484E-05   0.373879E+00   0.482958E+01
   0.490000E+03   0.360926E-05   0.700311E-05   0.373948E+00   0.482958E+01
   0.500000E+03   0.369201E-05   0.712450E-05   0.374016E+00   0.482958E+01
   0.510000E+03   0.376588E-05   0.722810E-05   0.374082E+00   0.482958E+01
   0.520000E+03   0.383025E-05   0.731301E-05   0.374146E+00   0.482958E+01
   0.530000E+03   0.388456E-05   0.737834E-05   0.374209E+00   0.482958E+01
   0.540000E+03   0.392828E-05   0.742321E-05   0.374271E+00   0.482958E+01
   0.550000E+03   0.396087E-05   0.744667E-05   0.374330E+00   0.482958E+01
   0.560000E+03   0.398186E-05   0.744780E-05   0.374389E+00   0.482958E+01
   0.570000E+03   0.399078E-05   0.742561E-05   0.374446E+00   0.482958E+01
   0.580000E+03   0.398721E-05   0.737912E-05   0.374501E+00   0.482958E+01
   0.590000E+03   0.397075E-05   0.730735E-05   0.374556E+00   0.482958E+01
   0.600000E+03   0.394107E-05   0.720932E-05   0.374608E+00   0.482958E+01
   0.610000E+03   0.389786E-05   0.708408E-05   0.374660E+00   0.482958E+01
   0.620000E+03   0.384088E-05   0.693072E-05   0.374711E+00   0.482958E+01
   0.630000E+03   0.376994E-05   0.674838E-05   0.374760E+00   0.482958E+01
   0.640000E+03   0.368490E-05   0.653627E-05   0.374808E+00   0.482958E+01
   0.650000E+03   0.358570E-05   0.629368E-05   0.374855E+00   0.482958E+01
   0.660000E+03   0.347233E-05   0.601996E-05   0.374901E+00   0.482958E+01
   0.670000E+03   0.334487E-05   0.571458E-05   0.374946E+00   0.482958E+01
   0.680000E+03   0.320343E-05   0.537707E-05   0.374990E+00   0.482958E+01
   0.690000E+03   0.304822E-05   0.500710E-05   0.375033E+00   0.482958E+01
   0.700000E+03   0.287949E-05   0.460443E-05   0.375075E+00   0.482958E+01
   0.710000E+03   0.269757E-05   0.416900E-05   0.375116E+00   0.482958E+01
   0.720000E+03   0.250283E-05   0.380378E-05   0.375156E+00   0.482958E+01
   0.730000E+03   0.229571E-05   0.384442E-05   0.375196E+00   0.482958E+01
   0.740000E+03   0.207671E-05   0.388333E-05   0.375234E+00   0.482958E+01
   0.750000E+03   0.184638E-05   0.392073E-05   0.375272E+00   0.482958E+01
   0.760000E+03   0.160529E-05   0.396715E-05   0.375309E+00   0.482958E+01
   0.770000E+03   0.135408E-05   0.407204E-05   0.375345E+00   0.482958E+01
   0.780000E+03   0.109340E-05   0.417756E-05   0.375381E+00   0.482958E+01
   0.790000E+03   0.823954E-06   0.428368E-05   0.375415E+00   0.482958E+01
   0.800000E+03   0.546443E-06   0.439043E-05   0.375449E+00   0.482958E+01
   0.810000E+03   0.261603E-06   0.449780E-05   0.375482E+00   0.482958E+01
   0.820000E+03  -0.298200E-07   0.460578E-05   0.375515E+00   0.482958E+01
   0.830000E+03  -0.327068E-06   0.471438E-05   0.375547E+00   0.482958E+01
   0.840000E+03  -0.629377E-06   0.482360E-05   0.375578E+00   0.482958E+01
   0.850000E+03  -0.935978E-06   0.493344E-05   0.375608E+00   0.482958E+01
   0.860000E+03  -0.124610E-05   0.504389E-05   0.375638E+00   0.482958E+01
   0.870000E+03  -0.155898E-05   0.515495E-05   0.375667E+00   0.482958E+01
   0.880000E+03  -0.187383E-05   0.526661E-05   0.375696E+00   0.482958E+01
   0.890000E+03  -0.218991E-05   0.537887E-05   0.375724E+00   0.482958E+01
   0.900000E+03  -0.250645E-05   0.549172E-05   0.375751E+00   0.482958E+01
   0.910000E+03  -0.282269E-05   0.560515E-05   0.375778E+00   0.482958E+01
   0.920000E+03  -0.313789E-05   0.571916E-05   0.375804E+00   0.482958E+01
   0.930000E+03  -0.345129E-05   0.583373E-05   0.375830E+00   0.482958E+01
   0.940000E+03  -0.376217E-05   0.594885E-05   0.375856E+00   0.482958E+01
   0.950000E+03  -0.406979E-05   0.606451E-05   0.375881E+00   0.482958E+01
   0.960000E+03  -0.437344E-05   0.618069E-05   0.375905E+00   0.482958E+01
   0.970000E+03  -0.467239E-05   0.629737E-05   0.375929E+00   0.482958E+01
   0.980000E+03  -0.496595E-05   0.641454E-05   0.375953E+00   0.482958E+01
   0.990000E+03  -0.525343E-05   0.653219E-05   0.375976E+00   0.482958E+01
   0.100000E+04  -0.553416E-05   0.665028E-05   0.375998E+00   0.482958E+01
   0.101000E+04  -0.580747E-05   0.676879E-05   0.376021E+00   0.482958E+01
   0.102000E+04  -0.607273E-05   0.688771E-05   0.376043E+00   0.482958E+01
   0.103000E+04  -0.632932E-05   0.700701E-05   0.376064E+00   0.482958E+01
   0.104000E+04  -0.657665E-05   0.712665E-05   0.376086E+00   0.482958E+01
   0.105000E+04  -0.681415E-05   0.724661E-05   0.376107E+00   0.482958E+01
   0.106000E+04  -0.704131E-05   0.736685E-05   0.376127E+00   0.482958E+01
   0.107000E+04  -0.725761E-05   0.748735E-05   0.376148E+00   0.482958E+01
   0.108000E+04  -0.746261E-05   0.760805E-05   0.376168E+00   0.482958E+01
   0.109000E+04  -0.765587E-05   0.772893E-05   0.376187E+00   0.482958E+01
   0.110000E+04  -0.783702E-05   0.784994E-05   0.376207E+00   0.482958E+01
   0.111000E+04  -0.800569E-05   0.797104E-05   0.376226E+00   0.482958E+01
   0.112000E+04  -0.816158E-05   0.809218E-05   0.376244E+00   0.482958E+01
   0.113000E+04  -0.830441E-05   0.821332E-05   0.376263E+00   0.482958E+01
   0.114000E+04  -0.843391E-05   0.833440E-05   0.376281E+00   0.482958E+01
   0.115000E+04  -0.854986E-05   0.845539E-05   0.376299E+00   0.482958E+01
   0.116000E+04  -0.865205E-05   0.857624E-05   0.376316E+00   0.482958E+01
   0.117000E+04  -0.874031E-05   0.869688E-05   0.376333E+00   0.482958E+01
   0.118000E+04  -0.881446E-05   0.881728E-05   0.376350E+00   0.482958E+01
   0.119000E+04  -0.887436E-05   0.893739E-05   0.376367E+00   0.482958E+01
   0.120000E+04  -0.891986E-05   0.905715E-05   0.376383E+00   0.482958E+01
   0.121000E+04  -0.895085E-05   0.917652E-05   0.376399E+00   0.482958E+01
   0.122000E+04  -0.896720E-05   0.929544E-05   0.376415E+00   0.482958E+01
   0.123000E+04  -0.896883E-05   0.941387E-05   0.376431E+00   0.482958E+01
   0.124000E+04  -0.895562E-05   0.953177E-05   0.376446E+00   0.482958E+01
   0.125000E+04  -0.892751E-05   0.964909E-05   0.376461E+00   0.482958E+01
   0.126000E+04  -0.888440E-05   0.976577E-05   0.376476E+00   0.482958E+01
   0.127000E+04  -0.882625E-05   0.988179E-05   0.376491E+00   0.482958E+01
   0.128000E+04  -0.875300E-05   0.999710E-05   0.376505E+00   0.482958E+01
   0.129000E+04  -0.866461E-05   0.101117E-04   0.376520E+00   0.482958E+01
   0.130000E+04  -0.856106E-05   0.102254E-04   0.376534E+00   0.482958E+01
   0.131000E+04  -0.844233E-05   0.103384E-04   0.376548E+00   0.482958E+01
   0.132000E+04  -0.830843E-05   0.104504E-04   0.376561E+00   0.482958E+01
   0.133000E+04  -0.815937E-05   0.105616E-04   0.376574E+00   0.482958E+01
   0.134000E+04  -0.799519E-05   0.106719E-04   0.376587E+00   0.482958E+01
   0.135000E+04  -0.781595E-05   0.107812E-04   0.376601E+00   0.482958E+01
   0.136000E+04  -0.762171E-05   0.108896E-04   0.376614E+00   0.482958E+01
   0.137000E+04  -0.741255E-05   0.109970E-04   0.376626E+00   0.482958E+01
   0.138000E+04  -0.718854E-05   0.111033E-04   0.376638E+00   0.482958E+01
   0.139000E+04  -0.694981E-05   0.112086E-04   0.376650E+00   0.482958E+01
   0.140000E+04  -0.669648E-05   0.113129E-04   0.376663E+00   0.482958E+01
   0.141000E+04  -0.642866E-05   0.114162E-04   0.376675E+00   0.482958E+01
   0.142000E+04  -0.614646E-05   0.115184E-04   0.376686E+00   0.482958E+01
   0.143000E+04  -0.585001E-05   0.116195E-04   0.376696E+00   0.482958E+01
   0.144000E+04  -0.553946E-05   0.117196E-04   0.376706E+00   0.482958E+01
   0.145000E+04  -0.521497E-05   0.118186E-04   0.376719E+00   0.482958E+01
   0.146000E+04  -0.487666E-05   0.119165E-04   0.376732E+00   0.482958E+01
   0.147000E+04  -0.452467E-05   0.120134E-04   0.376740E+00   0.482958E+01
   0.148000E+04  -0.415912E-05   0.121093E-04   0.376747E+00   0.482958E+01
   0.149000E+04  -0.378019E-05   0.122041E-04   0.376758E+00   0.482958E+01
   0.150000E+04  -0.338764E-05   0.122979E-04   0.376784E+00   0.482958E+01
   0.151000E+04  -0.298210E-05   0.123907E-04   0.376787E+00   0.482958E+01
   0.152000E+04  -0.256374E-05   0.124824E-04   0.376784E+00   0.482958E+01
   0.153000E+04  -0.213255E-05   0.125730E-04   0.376797E+00   0.482958E+01
   0.154000E+04  -0.168871E-05   0.126626E-04   0.376826E+00   0.482958E+01
   0.155000E+04  -0.123256E-05   0.127510E-04   0.376830E+00   0.482958E+01
   0.156000E+04  -0.764313E-06   0.128385E-04   0.376815E+00   0.482958E+01
   0.157000E+04  -0.284035E-06   0.129250E-04   0.376808E+00   0.482958E+01
   0.158000E+04   0.208185E-06   0.130106E-04   0.376818E+00   0.482958E+01
   0.159000E+04   0.712208E-06   0.130951E-04   0.376842E+00   0.482958E+01
   0.160000E+04   0.122783E-05   0.131787E-04   0.376851E+00   0.482958E+01
   0.161000E+04   0.175494E-05   0.136721E-04   0.376843E+00   0.482958E+01
   0.162000E+04   0.229363E-05   0.154091E-04   0.376837E+00   0.482958E+01
   0.163000E+04   0.284400E-05   0.171784E-04   0.376843E+00   0.482958E+01
   0.164000E+04   0.340606E-05   0.189808E-04   0.376862E+00   0.482958E+01
   0.165000E+04   0.397976E-05   0.208162E-04   0.376867E+00   0.482958E+01
   0.166000E+04   0.456501E-05   0.226848E-04   0.376856E+00   0.482958E+01
   0.167000E+04   0.516189E-05   0.245870E-04   0.376849E+00   0.482958E+01
   0.168000E+04   0.577047E-05   0.265236E-04   0.376853E+00   0.482958E+01
   0.169000E+04   0.639075E-05   0.284950E-04   0.376875E+00   0.482958E+01
   0.170000E+04   0.702263E-05   0.305006E-04   0.376888E+00   0.482958E+01
   0.171000E+04   0.766602E-05   0.325401E-04   0.376882E+00   0.482958E+01
   0.172000E+04   0.832091E-05   0.346133E-04   0.376873E+00   0.482958E+01
   0.173000E+04   0.898734E-05   0.367204E-04   0.376873E+00   0.482958E+01
   0.174000E+04   0.966524E-05   0.388611E-04   0.376889E+00   0.482958E+01
   0.175000E+04   0.103544E-04   0.410345E-04   0.376900E+00   0.482958E+01
   0.176000E+04   0.110545E-04   0.432390E-04   0.376895E+00   0.482958E+01
   0.177000E+04   0.117654E-04   0.454738E-04   0.376886E+00   0.482958E+01
   0.178000E+04   0.124870E-04   0.477383E-04   0.376887E+00   0.482958E+01
   0.179000E+04   0.132190E-04   0.500317E-04   0.376906E+00   0.482958E+01
   0.180000E+04   0.139612E-04   0.523527E-04   0.376922E+00   0.482958E+01
   0.181000E+04   0.147133E-04   0.546997E-04   0.376921E+00   0.482958E+01
   0.182000E+04   0.154748E-04   0.570711E-04   0.376910E+00   0.482958E+01
   0.183000E+04   0.162456E-04   0.594662E-04   0.376906E+00   0.482958E+01
   0.184000E+04   0.170255E-04   0.618841E-04   0.376916E+00   0.482958E+01
   0.185000E+04   0.178140E-04   0.643232E-04   0.376931E+00   0.482958E+01
   0.186000E+04   0.186107E-04   0.667814E-04   0.376934E+00   0.482958E+01
   0.187000E+04   0.194152E-04   0.692571E-04   0.376926E+00   0.482958E+01
   0.188000E+04   0.202270E-04   0.717493E-04   0.376924E+00   0.482958E+01
   0.189000E+04   0.210460E-04   0.742571E-04   0.376935E+00   0.482958E+01
   0.190000E+04   0.218718E-04   0.767790E-04   0.376953E+00   0.482958E+01
   0.191000E+04   0.227040E-04   0.793134E-04   0.376958E+00   0.482958E+01
   0.192000E+04   0.235420E-04   0.818585E-04   0.376948E+00   0.482958E+01
   0.193000E+04   0.243855E-04   0.844134E-04   0.376940E+00   0.482958E+01
   0.194000E+04   0.252343E-04   0.869774E-04   0.376942E+00   0.482958E+01
   0.195000E+04   0.260881E-04   0.895491E-04   0.376961E+00   0.482958E+01
   0.196000E+04   0.269462E-04   0.921267E-04   0.376971E+00   0.482958E+01
   0.197000E+04   0.278081E-04   0.947088E-04   0.376966E+00   0.482958E+01
   0.198000E+04   0.286737E-04   0.972945E-04   0.376961E+00   0.482958E+01
   0.199000E+04   0.295426E-04   0.998833E-04   0.376962E+00   0.482958E+01
   0.200000E+04   0.304146E-04   0.102474E-03   0.376980E+00   0.482958E+01
   0.201000E+04   0.312893E-04   0.105066E-03   0.376991E+00   0.482958E+01
   0.202000E+04   0.321662E-04   0.107657E-03   0.376985E+00   0.482958E+01
   0.203000E+04   0.330450E-04   0.110247E-03   0.376973E+00   0.482958E+01
   0.204000E+04   0.339255E-04   0.112835E-03   0.376970E+00   0.482958E+01
   0.205000E+04   0.348074E-04   0.115421E-03   0.376986E+00   0.482958E+01
   0.206000E+04   0.356904E-04   0.118003E-03   0.377003E+00   0.482958E+01
   0.207000E+04   0.365740E-04   0.120580E-03   0.377006E+00   0.482958E+01
   0.208000E+04   0.374580E-04   0.123152E-03   0.376996E+00   0.482958E+01
   0.209000E+04   0.383422E-04   0.125718E-03   0.376992E+00   0.482958E+01
   0.210000E+04   0.392265E-04   0.128279E-03   0.377002E+00   0.482958E+01
   0.211000E+04   0.401107E-04   0.130833E-03   0.377017E+00   0.482958E+01
   0.212000E+04   0.409943E-04   0.133379E-03   0.377018E+00   0.482958E+01
   0.213000E+04   0.418771E-04   0.135917E-03   0.377006E+00   0.482958E+01
   0.214000E+04   0.427589E-04   0.138446E-03   0.377001E+00   0.482958E+01
   0.215000E+04   0.436397E-04   0.140967E-03   0.377009E+00   0.482958E+01
   0.216000E+04   0.445192E-04   0.143479E-03   0.377030E+00   0.482958E+01
   0.217000E+04   0.453972E-04   0.145981E-03   0.377039E+00   0.482958E+01
   0.218000E+04   0.462733E-04   0.148472E-03   0.377031E+00   0.482958E+01
   0.219000E+04   0.471476E-04   0.150953E-03   0.377022E+00   0.482958E+01
   0.220000E+04   0.480199E-04   0.153424E-03   0.377022E+00   0.482958E+01
   0.221000E+04   0.488903E-04   0.155884E-03   0.377037E+00   0.482958E+01
   0.222000E+04   0.497584E-04   0.158333E-03   0.377046E+00   0.482958E+01
   0.223000E+04   0.506240E-04   0.160770E-03   0.377041E+00   0.482958E+01
   0.224000E+04   0.514869E-04   0.163195E-03   0.377033E+00   0.482958E+01
   0.225000E+04   0.523471E-04   0.165608E-03   0.377033E+00   0.482958E+01
   0.226000E+04   0.532047E-04   0.168009E-03   0.377050E+00   0.482958E+01
   0.227000E+04   0.540595E-04   0.170398E-03   0.377064E+00   0.482958E+01
   0.228000E+04   0.549112E-04   0.172774E-03   0.377064E+00   0.482958E+01
   0.229000E+04   0.557596E-04   0.175137E-03   0.377051E+00   0.482958E+01
   0.230000E+04   0.566050E-04   0.177488E-03   0.377045E+00   0.482958E+01
   0.231000E+04   0.574472E-04   0.179825E-03   0.377052E+00   0.482958E+01
   0.232000E+04   0.582863E-04   0.182151E-03   0.377068E+00   0.482958E+01
   0.233000E+04   0.591219E-04   0.184462E-03   0.377073E+00   0.482958E+01
   0.234000E+04   0.599539E-04   0.186760E-03   0.377065E+00   0.482958E+01
   0.235000E+04   0.607822E-04   0.189045E-03   0.377061E+00   0.482958E+01
   0.236000E+04   0.616071E-04   0.191316E-03   0.377065E+00   0.482958E+01
   0.237000E+04   0.624284E-04   0.193575E-03   0.377083E+00   0.482958E+01
   0.238000E+04   0.632461E-04   0.195819E-03   0.377091E+00   0.482958E+01
   0.239000E+04   0.640600E-04   0.198050E-03   0.377082E+00   0.482958E+01
   0.240000E+04   0.648700E-04   0.200267E-03   0.377070E+00   0.482958E+01
   0.241000E+04   0.656762E-04   0.202471E-03   0.377067E+00   0.482958E+01
   0.242000E+04   0.664788E-04   0.204661E-03   0.377084E+00   0.482958E+01
   0.243000E+04   0.672775E-04   0.206837E-03   0.377098E+00   0.482958E+01
   0.244000E+04   0.680721E-04   0.209000E-03   0.377099E+00   0.482958E+01
   0.245000E+04   0.688626E-04   0.211148E-03   0.377089E+00   0.482958E+01
   0.246000E+04   0.696491E-04   0.213283E-03   0.377084E+00   0.482958E+01
   0.247000E+04   0.704317E-04   0.215404E-03   0.377095E+00   0.482958E+01
   0.248000E+04   0.712105E-04   0.217511E-03   0.377109E+00   0.482958E+01
   0.249000E+04   0.719852E-04   0.219605E-03   0.377109E+00   0.482958E+01
   0.250000E+04   0.727557E-04   0.221684E-03   0.377096E+00   0.482958E+01
   0.251000E+04   0.735220E-04   0.223749E-03   0.377090E+00   0.482958E+01
   0.252000E+04   0.742843E-04   0.225801E-03   0.377096E+00   0.482958E+01
   0.253000E+04   0.750426E-04   0.227839E-03   0.377116E+00   0.482958E+01
   0.254000E+04   0.757967E-04   0.229864E-03   0.377126E+00   0.482958E+01
   0.255000E+04   0.765466E-04   0.231874E-03   0.377118E+00   0.482958E+01
   0.256000E+04   0.772921E-04   0.233871E-03   0.377108E+00   0.482958E+01
   0.257000E+04   0.780336E-04   0.235854E-03   0.377105E+00   0.482958E+01
   0.258000E+04   0.787711E-04   0.237823E-03   0.377119E+00   0.482958E+01
   0.259000E+04   0.795046E-04   0.239779E-03   0.377128E+00   0.482958E+01
   0.260000E+04   0.802337E-04   0.241721E-03   0.377126E+00   0.482958E+01
   0.261000E+04   0.809585E-04   0.243649E-03   0.377116E+00   0.482958E+01
   0.262000E+04   0.816790E-04   0.245563E-03   0.377114E+00   0.482958E+01
   0.263000E+04   0.823954E-04   0.247464E-03   0.377127E+00   0.482958E+01
   0.264000E+04   0.831078E-04   0.249352E-03   0.377143E+00   0.482958E+01
   0.265000E+04   0.838160E-04   0.251226E-03   0.377145E+00   0.482958E+01
   0.266000E+04   0.845198E-04   0.253087E-03   0.377133E+00   0.482958E+01
   0.267000E+04   0.852192E-04   0.254933E-03   0.377124E+00   0.482958E+01
   0.268000E+04   0.859147E-04   0.256767E-03   0.377125E+00   0.482958E+01
   0.269000E+04   0.866061E-04   0.258588E-03   0.377141E+00   0.482958E+01
   0.270000E+04   0.872934E-04   0.260395E-03   0.377150E+00   0.482958E+01
   0.271000E+04   0.879762E-04   0.262188E-03   0.377145E+00   0.482958E+01
   0.272000E+04   0.886547E-04   0.263969E-03   0.377138E+00   0.482958E+01
   0.273000E+04   0.893291E-04   0.265736E-03   0.377136E+00   0.482958E+01
   0.274000E+04   0.899994E-04   0.267491E-03   0.377151E+00   0.482958E+01
   0.275000E+04   0.906658E-04   0.269232E-03   0.377162E+00   0.482958E+01
   0.276000E+04   0.913278E-04   0.270960E-03   0.377159E+00   0.482958E+01
   0.277000E+04   0.919856E-04   0.272675E-03   0.377144E+00   0.482958E+01
   0.278000E+04   0.926391E-04   0.274377E-03   0.377137E+00   0.482958E+01
   0.279000E+04   0.932886E-04   0.276067E-03   0.377147E+00   0.482958E+01
   0.280000E+04   0.939342E-04   0.277743E-03   0.377165E+00   0.482958E+01
   0.281000E+04   0.945756E-04   0.279407E-03   0.377172E+00   0.482958E+01
   0.282000E+04   0.952126E-04   0.281059E-03   0.377163E+00   0.482958E+01
   0.283000E+04   0.958454E-04   0.282697E-03   0.377155E+00   0.482958E+01
   0.284000E+04   0.964742E-04   0.284323E-03   0.377155E+00   0.482958E+01
   0.285000E+04   0.970991E-04   0.285937E-03   0.377170E+00   0.482958E+01
   0.286000E+04   0.977201E-04   0.287538E-03   0.377176E+00   0.482958E+01
   0.287000E+04   0.983368E-04   0.289127E-03   0.377170E+00   0.482958E+01
   0.288000E+04   0.989493E-04   0.290703E-03   0.377158E+00   0.482958E+01
   0.289000E+04   0.995578E-04   0.292267E-03   0.377157E+00   0.482958E+01
   0.290000E+04   0.100162E-03   0.293820E-03   0.377172E+00   0.482958E+01
   0.291000E+04   0.100763E-03   0.295360E-03   0.377187E+00   0.482958E+01
   0.292000E+04   0.101360E-03   0.296888E-03   0.377188E+00   0.482958E+01
   0.293000E+04   0.101952E-03   0.298404E-03   0.377176E+00   0.482958E+01
   0.294000E+04   0.102540E-03   0.299908E-03   0.377168E+00   0.482958E+01
   0.295000E+04   0.103125E-03   0.301401E-03   0.377170E+00   0.482958E+01
   0.296000E+04   0.103706E-03   0.302881E-03   0.377184E+00   0.482958E+01
   0.297000E+04   0.104283E-03   0.304351E-03   0.377191E+00   0.482958E+01
   0.298000E+04   0.104856E-03   0.305808E-03   0.377185E+00   0.482958E+01
   0.299000E+04   0.105424E-03   0.307253E-03   0.377177E+00   0.482958E+01
   0.300000E+04   0.105989E-03   0.308688E-03   0.377177E+00   0.482958E+01
   0.301000E+04   0.106550E-03   0.310112E-03   0.377192E+00   0.482958E+01
   0.302000E+04   0.107108E-03   0.311524E-03   0.377203E+00   0.482958E+01
   0.303000E+04   0.107661E-03   0.312924E-03   0.377200E+00   0.482958E+01
   0.304000E+04   0.108211E-03   0.314314E-03   0.377186E+00   0.482958E+01
   0.305000E+04   0.108756E-03   0.315692E-03   0.377178E+00   0.482958E+01
   0.306000E+04   0.109298E-03   0.317059E-03   0.377185E+00   0.482958E+01
   0.307000E+04   0.109837E-03   0.318416E-03   0.377202E+00   0.482958E+01
   0.308000E+04   0.110371E-03   0.319761E-03   0.377208E+00   0.482958E+01
   0.309000E+04   0.110902E-03   0.321096E-03   0.377201E+00   0.482958E+01
   0.310000E+04   0.111429E-03   0.322420E-03   0.377193E+00   0.482958E+01
   0.311000E+04   0.111952E-03   0.323734E-03   0.377193E+00   0.482958E+01
   0.312000E+04   0.112471E-03   0.325037E-03   0.377208E+00   0.482958E+01
   0.313000E+04   0.112988E-03   0.326330E-03   0.377215E+00   0.482958E+01
   0.314000E+04   0.113500E-03   0.327612E-03   0.377208E+00   0.482958E+01
   0.315000E+04   0.114008E-03   0.328883E-03   0.377195E+00   0.482958E+01
   0.316000E+04   0.114513E-03   0.330144E-03   0.377191E+00   0.482958E+01
   0.317000E+04   0.115015E-03   0.331396E-03   0.377204E+00   0.482958E+01
   0.318000E+04   0.115513E-03   0.332637E-03   0.377221E+00   0.482958E+01
   0.319000E+04   0.116007E-03   0.333869E-03   0.377224E+00   0.482958E+01
   0.320000E+04   0.116498E-03   0.335090E-03   0.377213E+00   0.482958E+01
   0.321000E+04   0.116985E-03   0.336301E-03   0.377204E+00   0.482958E+01
   0.322000E+04   0.117468E-03   0.337502E-03   0.377205E+00   0.482958E+01
   0.323000E+04   0.117949E-03   0.338694E-03   0.377218E+00   0.482958E+01
   0.324000E+04   0.118426E-03   0.339876E-03   0.377224E+00   0.482958E+01
   0.325000E+04   0.118899E-03   0.341049E-03   0.377219E+00   0.482958E+01
   0.326000E+04   0.119369E-03   0.342211E-03   0.377209E+00   0.482958E+01
   0.327000E+04   0.119835E-03   0.343365E-03   0.377208E+00   0.482958E+01
   0.328000E+04   0.120298E-03   0.344509E-03   0.377223E+00   0.482958E+01
   0.329000E+04   0.120758E-03   0.345644E-03   0.377235E+00   0.482958E+01
   0.330000E+04   0.121215E-03   0.346770E-03   0.377235E+00   0.482958E+01
   0.331000E+04   0.121668E-03   0.347886E-03   0.377221E+00   0.482958E+01
   0.332000E+04   0.122117E-03   0.348993E-03   0.377212E+00   0.482958E+01
   0.333000E+04   0.122564E-03   0.350091E-03   0.377214E+00   0.482958E+01
   0.334000E+04   0.123007E-03   0.351180E-03   0.377230E+00   0.482958E+01
   0.335000E+04   0.123447E-03   0.352261E-03   0.377238E+00   0.482958E+01
   0.336000E+04   0.123884E-03   0.353332E-03   0.377233E+00   0.482958E+01
   0.337000E+04   0.124317E-03   0.354395E-03   0.377225E+00   0.482958E+01
   0.338000E+04   0.124747E-03   0.355449E-03   0.377222E+00   0.482958E+01
   0.339000E+04   0.125175E-03   0.356494E-03   0.377235E+00   0.482958E+01
   0.340000E+04   0.125599E-03   0.357532E-03   0.377245E+00   0.482958E+01
   0.341000E+04   0.126020E-03   0.358560E-03   0.377242E+00   0.482958E+01
   0.342000E+04   0.126438E-03   0.359579E-03   0.377227E+00   0.482958E+01
   0.343000E+04   0.126852E-03   0.360591E-03   0.377220E+00   0.482958E+01
   0.344000E+04   0.127264E-03   0.361594E-03   0.377228E+00   0.482958E+01
   0.345000E+04   0.127673E-03   0.362589E-03   0.377245E+00   0.482958E+01
   0.346000E+04   0.128079E-03   0.363577E-03   0.377253E+00   0.482958E+01
   0.347000E+04   0.128481E-03   0.364556E-03   0.377245E+00   0.482958E+01
   0.348000E+04   0.128881E-03   0.365526E-03   0.377234E+00   0.482958E+01
   0.349000E+04   0.129277E-03   0.366489E-03   0.377231E+00   0.482958E+01
   0.350000E+04   0.129671E-03   0.367445E-03   0.377243E+00   0.482958E+01
   0.351000E+04   0.130062E-03   0.368392E-03   0.377251E+00   0.482958E+01
   0.352000E+04   0.130450E-03   0.369332E-03   0.377248E+00   0.482958E+01
   0.353000E+04   0.130835E-03   0.370263E-03   0.377237E+00   0.482958E+01
   0.354000E+04   0.131217E-03   0.371187E-03   0.377233E+00   0.482958E+01
   0.355000E+04   0.131596E-03   0.372104E-03   0.377243E+00   0.482958E+01
   0.356000E+04   0.131973E-03   0.373014E-03   0.377258E+00   0.482958E+01
   0.357000E+04   0.132347E-03   0.373916E-03   0.377262E+00   0.482958E+01
   0.358000E+04   0.132718E-03   0.374811E-03   0.377252E+00   0.482958E+01
   0.359000E+04   0.133086E-03   0.375698E-03   0.377241E+00   0.482958E+01
   0.360000E+04   0.133452E-03   0.376578E-03   0.377237E+00   0.482958E+01
   0.361000E+04   0.133815E-03   0.377451E-03   0.377249E+00   0.482958E+01
   0.362000E+04   0.134175E-03   0.378318E-03   0.377260E+00   0.482958E+01
   0.363000E+04   0.134533E-03   0.379177E-03   0.377260E+00   0.482958E+01
   0.364000E+04   0.134888E-03   0.380029E-03   0.377251E+00   0.482958E+01
   0.365000E+04   0.135240E-03   0.380874E-03   0.377246E+00   0.482958E+01
   0.366000E+04   0.135590E-03   0.381713E-03   0.377253E+00   0.482958E+01
   0.367000E+04   0.135937E-03   0.382545E-03   0.377267E+00   0.482958E+01
   0.368000E+04   0.136282E-03   0.383370E-03   0.377269E+00   0.482958E+01
   0.369000E+04   0.136624E-03   0.384189E-03   0.377256E+00   0.482958E+01
   0.370000E+04   0.136963E-03   0.385000E-03   0.377246E+00   0.482958E+01
   0.371000E+04   0.137300E-03   0.385806E-03   0.377245E+00   0.482958E+01
   0.372000E+04   0.137635E-03   0.386605E-03   0.377261E+00   0.482958E+01
   0.373000E+04   0.137967E-03   0.387398E-03   0.377273E+00   0.482958E+01
   0.374000E+04   0.138297E-03   0.388185E-03   0.377272E+00   0.482958E+01
   0.375000E+04   0.138624E-03   0.388965E-03   0.377260E+00   0.482958E+01
   0.376000E+04   0.138949E-03   0.389739E-03   0.377253E+00   0.482958E+01
   0.377000E+04   0.139272E-03   0.390507E-03   0.377260E+00   0.482958E+01
   0.378000E+04   0.139592E-03   0.391269E-03   0.377271E+00   0.482958E+01
   0.379000E+04   0.139910E-03   0.392026E-03   0.377272E+00   0.482958E+01
   0.380000E+04   0.140226E-03   0.392775E-03   0.377262E+00   0.482958E+01
   0.381000E+04   0.140539E-03   0.393519E-03   0.377255E+00   0.482958E+01
   0.382000E+04   0.140850E-03   0.394257E-03   0.377257E+00   0.482958E+01
   0.383000E+04   0.141159E-03   0.394991E-03   0.377274E+00   0.482958E+01
   0.384000E+04   0.141466E-03   0.395718E-03   0.377283E+00   0.482958E+01
   0.385000E+04   0.141770E-03   0.396440E-03   0.377279E+00   0.482958E+01
   0.386000E+04   0.142072E-03   0.397155E-03   0.377266E+00   0.482958E+01
   0.387000E+04   0.142372E-03   0.397865E-03   0.377257E+00   0.482958E+01
   0.388000E+04   0.142670E-03   0.398570E-03   0.377264E+00   0.482958E+01
   0.389000E+04   0.142966E-03   0.399269E-03   0.377276E+00   0.482958E+01
   0.390000E+04   0.143260E-03   0.399963E-03   0.377281E+00   0.482958E+01
   0.391000E+04   0.143551E-03   0.400652E-03   0.377273E+00   0.482958E+01
   0.392000E+04   0.143840E-03   0.401335E-03   0.377267E+00   0.482958E+01
   0.393000E+04   0.144128E-03   0.402013E-03   0.377267E+00   0.482958E+01