title="breakthrough data set at     5 wells"
variables="time(days)","cavg","cpk","upk","zswi"
zone i=     1295
   0.100000E+02   0.491349E-10   0.887520E-10   0.465315E+00   0.486514E+01
   0.200000E+02   0.981605E-10   0.171403E-09   0.375446E+00   0.484592E+01
   0.300000E+02   0.178332E-09   0.305189E-09   0.374984E+00   0.484592E+01
   0.400000E+02   0.300637E-09   0.507284E-09   0.374899E+00   0.484592E+01
   0.500000E+02   0.477410E-09   0.796449E-09   0.374835E+00   0.484592E+01
   0.600000E+02   0.722736E-09   0.119366E-08   0.374772E+00   0.484592E+01
   0.700000E+02   0.105245E-08   0.172186E-08   0.374711E+00   0.484592E+01
   0.800000E+02   0.148430E-08   0.240610E-08   0.374657E+00   0.484592E+01
   0.900000E+02   0.203791E-08   0.327319E-08   0.374611E+00   0.484592E+01
   0.100000E+03   0.273475E-08   0.435158E-08   0.374573E+00   0.484592E+01
   0.110000E+03   0.359667E-08   0.566788E-08   0.374577E+00   0.484592E+01
   0.120000E+03   0.464968E-08   0.725577E-08   0.374544E+00   0.484592E+01
   0.130000E+03   0.592086E-08   0.915034E-08   0.374499E+00   0.484592E+01
   0.140000E+03   0.743392E-08   0.113778E-07   0.374487E+00   0.484592E+01
   0.150000E+03   0.921558E-08   0.139695E-07   0.374479E+00   0.484592E+01
   0.160000E+03   0.112944E-07   0.169588E-07   0.374473E+00   0.484592E+01
   0.170000E+03   0.137006E-07   0.203743E-07   0.374474E+00   0.484592E+01
   0.180000E+03   0.164746E-07   0.242654E-07   0.374468E+00   0.484592E+01
   0.190000E+03   0.196526E-07   0.286753E-07   0.374464E+00   0.484592E+01
   0.200000E+03   0.232626E-07   0.336478E-07   0.374461E+00   0.484592E+01
   0.210000E+03   0.273150E-07   0.392252E-07   0.374459E+00   0.484592E+01
   0.220000E+03   0.317922E-07   0.454478E-07   0.374458E+00   0.484592E+01
   0.230000E+03   0.366368E-07   0.523538E-07   0.374458E+00   0.484592E+01
   0.240000E+03   0.417385E-07   0.599800E-07   0.374459E+00   0.484592E+01
   0.250000E+03   0.469241E-07   0.683636E-07   0.374460E+00   0.484592E+01
   0.260000E+03   0.519550E-07   0.775462E-07   0.374462E+00   0.484592E+01
   0.270000E+03   0.565316E-07   0.875800E-07   0.374464E+00   0.484592E+01
   0.280000E+03   0.603047E-07   0.985359E-07   0.374466E+00   0.484592E+01
   0.290000E+03   0.628871E-07   0.110512E-06   0.374468E+00   0.484592E+01
   0.300000E+03   0.638612E-07   0.123641E-06   0.374471E+00   0.484592E+01
   0.310000E+03   0.627808E-07   0.138094E-06   0.374473E+00   0.484592E+01
   0.320000E+03   0.591712E-07   0.154082E-06   0.374476E+00   0.484592E+01
   0.330000E+03   0.525326E-07   0.171851E-06   0.374479E+00   0.484592E+01
   0.340000E+03   0.423512E-07   0.191679E-06   0.374481E+00   0.484592E+01
   0.350000E+03   0.281209E-07   0.213867E-06   0.374484E+00   0.484592E+01
   0.360000E+03   0.937267E-08   0.238729E-06   0.374486E+00   0.484592E+01
   0.370000E+03  -0.142943E-07   0.266589E-06   0.374488E+00   0.484592E+01
   0.380000E+03  -0.431864E-07   0.297759E-06   0.374490E+00   0.484592E+01
   0.390000E+03  -0.775016E-07   0.332539E-06   0.374492E+00   0.484592E+01
   0.400000E+03  -0.117331E-06   0.371193E-06   0.374494E+00   0.484592E+01
   0.410000E+03  -0.162677E-06   0.413951E-06   0.374495E+00   0.484592E+01
   0.420000E+03  -0.213477E-06   0.460995E-06   0.374497E+00   0.484592E+01
   0.430000E+03  -0.269643E-06   0.512462E-06   0.374498E+00   0.484592E+01
   0.440000E+03  -0.331090E-06   0.568444E-06   0.374500E+00   0.484592E+01
   0.450000E+03  -0.397774E-06   0.628992E-06   0.374501E+00   0.484592E+01
   0.460000E+03  -0.469709E-06   0.694130E-06   0.374503E+00   0.484592E+01
   0.470000E+03  -0.546996E-06   0.763861E-06   0.374504E+00   0.484592E+01
   0.480000E+03  -0.629828E-06   0.838178E-06   0.374505E+00   0.484592E+01
   0.490000E+03  -0.718498E-06   0.917080E-06   0.374505E+00   0.484592E+01
   0.500000E+03  -0.813413E-06   0.100056E-05   0.374506E+00   0.484592E+01
   0.510000E+03  -0.915087E-06   0.108861E-05   0.374508E+00   0.484592E+01
   0.520000E+03  -0.102408E-05   0.118128E-05   0.374507E+00   0.484592E+01
   0.530000E+03  -0.114099E-05   0.127865E-05   0.374504E+00   0.484592E+01
   0.540000E+03  -0.126505E-05   0.138127E-05   0.374504E+00   0.484592E+01
   0.550000E+03  -0.139795E-05   0.148882E-05   0.374512E+00   0.484592E+01
   0.560000E+03  -0.154107E-05   0.160148E-05   0.374489E+00   0.484592E+01
   0.570000E+03  -0.169389E-05   0.171959E-05   0.374484E+00   0.484592E+01
   0.580000E+03  -0.185946E-05   0.184270E-05   0.374494E+00   0.484592E+01
   0.590000E+03  -0.203803E-05   0.197160E-05   0.374486E+00   0.484592E+01
   0.600000E+03  -0.222990E-05   0.210689E-05   0.374487E+00   0.484592E+01
   0.610000E+03  -0.243708E-05   0.224857E-05   0.374489E+00   0.484592E+01
   0.620000E+03  -0.266028E-05   0.239714E-05   0.374463E+00   0.484592E+01
   0.630000E+03  -0.290319E-05   0.255202E-05   0.374475E+00   0.484592E+01
   0.640000E+03  -0.316608E-05   0.271397E-05   0.374476E+00   0.484592E+01
   0.650000E+03  -0.345004E-05   0.288354E-05   0.374476E+00   0.484592E+01
   0.660000E+03  -0.375406E-05   0.306106E-05   0.374470E+00   0.484592E+01
   0.670000E+03  -0.407962E-05   0.324625E-05   0.374466E+00   0.484592E+01
   0.680000E+03  -0.442594E-05   0.343918E-05   0.374460E+00   0.484592E+01
   0.690000E+03  -0.479643E-05   0.363936E-05   0.374475E+00   0.484592E+01
   0.700000E+03  -0.518814E-05   0.384763E-05   0.374473E+00   0.484592E+01
   0.710000E+03  -0.559993E-05   0.406399E-05   0.374461E+00   0.484592E+01
   0.720000E+03  -0.603408E-05   0.428728E-05   0.374456E+00   0.484592E+01
   0.730000E+03  -0.649054E-05   0.451706E-05   0.374443E+00   0.484592E+01
   0.740000E+03  -0.697319E-05   0.475207E-05   0.374459E+00   0.484592E+01
   0.750000E+03  -0.747778E-05   0.499333E-05   0.374462E+00   0.484592E+01
   0.760000E+03  -0.799978E-05   0.524168E-05   0.374449E+00   0.484592E+01
   0.770000E+03  -0.854281E-05   0.549570E-05   0.374447E+00   0.484592E+01
   0.780000E+03  -0.910582E-05   0.575511E-05   0.374441E+00   0.484592E+01
   0.790000E+03  -0.969038E-05   0.601906E-05   0.374436E+00   0.484592E+01
   0.800000E+03  -0.102953E-04   0.628727E-05   0.374444E+00   0.484592E+01
   0.810000E+03  -0.109192E-04   0.655970E-05   0.374454E+00   0.484592E+01
   0.820000E+03  -0.115539E-04   0.683782E-05   0.374434E+00   0.484592E+01
   0.830000E+03  -0.122078E-04   0.711843E-05   0.374422E+00   0.484592E+01
   0.840000E+03  -0.128790E-04   0.740138E-05   0.374408E+00   0.484592E+01
   0.850000E+03  -0.135757E-04   0.768439E-05   0.374430E+00   0.484592E+01
   0.860000E+03  -0.142873E-04   0.797093E-05   0.374428E+00   0.484592E+01
   0.870000E+03  -0.150069E-04   0.826287E-05   0.374415E+00   0.484592E+01
   0.880000E+03  -0.157401E-04   0.855858E-05   0.374408E+00   0.484592E+01
   0.890000E+03  -0.164913E-04   0.885697E-05   0.374414E+00   0.484592E+01
   0.900000E+03  -0.172570E-04   0.915953E-05   0.374417E+00   0.484592E+01
   0.910000E+03  -0.180223E-04   0.947082E-05   0.374411E+00   0.484592E+01
   0.920000E+03  -0.187935E-04   0.978871E-05   0.374396E+00   0.484592E+01
   0.930000E+03  -0.195709E-04   0.101128E-04   0.374378E+00   0.484592E+01
   0.940000E+03  -0.203648E-04   0.104402E-04   0.374398E+00   0.484592E+01
   0.950000E+03  -0.211627E-04   0.107757E-04   0.374403E+00   0.484592E+01
   0.960000E+03  -0.219569E-04   0.111225E-04   0.374396E+00   0.484592E+01
   0.970000E+03  -0.227474E-04   0.114800E-04   0.374381E+00   0.484592E+01
   0.980000E+03  -0.235345E-04   0.118470E-04   0.374370E+00   0.484592E+01
   0.990000E+03  -0.243311E-04   0.122185E-04   0.374379E+00   0.484592E+01
   0.100000E+04  -0.251269E-04   0.125976E-04   0.374384E+00   0.484592E+01
   0.101000E+04  -0.259109E-04   0.129879E-04   0.374380E+00   0.484592E+01
   0.102000E+04  -0.266796E-04   0.133887E-04   0.374378E+00   0.484592E+01
   0.103000E+04  -0.274425E-04   0.137950E-04   0.374368E+00   0.484592E+01
   0.104000E+04  -0.282058E-04   0.142027E-04   0.374367E+00   0.484592E+01
   0.105000E+04  -0.289672E-04   0.146117E-04   0.374366E+00   0.484592E+01
   0.106000E+04  -0.297153E-04   0.150251E-04   0.374371E+00   0.484592E+01
   0.107000E+04  -0.304470E-04   0.154423E-04   0.374364E+00   0.484592E+01
   0.108000E+04  -0.311731E-04   0.158577E-04   0.374347E+00   0.484592E+01
   0.109000E+04  -0.319069E-04   0.162658E-04   0.374358E+00   0.484592E+01
   0.110000E+04  -0.326334E-04   0.166734E-04   0.374363E+00   0.484592E+01
   0.111000E+04  -0.333368E-04   0.170875E-04   0.374351E+00   0.484592E+01
   0.112000E+04  -0.340301E-04   0.175026E-04   0.374334E+00   0.484592E+01
   0.113000E+04  -0.347170E-04   0.179175E-04   0.374321E+00   0.484592E+01
   0.114000E+04  -0.354164E-04   0.183258E-04   0.374346E+00   0.484592E+01
   0.115000E+04  -0.361002E-04   0.187428E-04   0.374349E+00   0.484592E+01
   0.116000E+04  -0.367575E-04   0.191742E-04   0.374336E+00   0.484592E+01
   0.117000E+04  -0.373972E-04   0.196158E-04   0.374321E+00   0.484592E+01
   0.118000E+04  -0.380300E-04   0.200623E-04   0.374321E+00   0.484592E+01
   0.119000E+04  -0.386606E-04   0.205118E-04   0.374329E+00   0.484592E+01
   0.120000E+04  -0.392645E-04   0.209754E-04   0.374330E+00   0.484592E+01
   0.121000E+04  -0.398358E-04   0.214547E-04   0.374322E+00   0.484592E+01
   0.122000E+04  -0.403890E-04   0.219406E-04   0.374316E+00   0.484592E+01
   0.123000E+04  -0.409358E-04   0.224269E-04   0.374318E+00   0.484592E+01
   0.124000E+04  -0.414724E-04   0.229153E-04   0.374330E+00   0.484592E+01
   0.125000E+04  -0.419620E-04   0.234230E-04   0.374316E+00   0.484592E+01
   0.126000E+04  -0.424244E-04   0.239382E-04   0.374305E+00   0.484592E+01
   0.127000E+04  -0.428688E-04   0.244552E-04   0.374291E+00   0.484592E+01
   0.128000E+04  -0.433141E-04   0.249644E-04   0.374306E+00   0.484592E+01
   0.129000E+04  -0.437400E-04   0.254774E-04   0.374315E+00   0.484592E+01
   0.130000E+04  -0.441277E-04   0.260038E-04   0.374311E+00   0.484592E+01
   0.131000E+04  -0.444829E-04   0.265392E-04   0.374296E+00   0.484592E+01
   0.132000E+04  -0.448171E-04   0.270758E-04   0.374284E+00   0.484592E+01
   0.133000E+04  -0.451552E-04   0.276005E-04   0.374295E+00   0.484592E+01
   0.134000E+04  -0.454749E-04   0.281262E-04   0.374302E+00   0.484592E+01
   0.135000E+04  -0.457489E-04   0.286665E-04   0.374293E+00   0.484592E+01
   0.136000E+04  -0.459973E-04   0.292089E-04   0.374285E+00   0.484592E+01
   0.137000E+04  -0.462429E-04   0.297410E-04   0.374287E+00   0.484592E+01
   0.138000E+04  -0.464844E-04   0.302648E-04   0.374299E+00   0.484592E+01
   0.139000E+04  -0.466762E-04   0.308051E-04   0.374291E+00   0.484592E+01
   0.140000E+04  -0.468414E-04   0.313484E-04   0.374277E+00   0.484592E+01
   0.141000E+04  -0.469884E-04   0.318895E-04   0.374256E+00   0.484592E+01
   0.142000E+04  -0.471460E-04   0.324133E-04   0.374279E+00   0.484592E+01
   0.143000E+04  -0.472898E-04   0.329367E-04   0.374287E+00   0.484592E+01
   0.144000E+04  -0.473929E-04   0.334754E-04   0.374281E+00   0.484592E+01
   0.145000E+04  -0.474674E-04   0.340214E-04   0.374267E+00   0.484592E+01
   0.146000E+04  -0.475258E-04   0.345665E-04   0.374253E+00   0.484592E+01
   0.147000E+04  -0.476000E-04   0.350935E-04   0.374270E+00   0.484592E+01
   0.148000E+04  -0.476522E-04   0.356263E-04   0.374276E+00   0.484592E+01
   0.149000E+04  -0.476605E-04   0.361771E-04   0.374264E+00   0.484592E+01
   0.150000E+04  -0.476478E-04   0.367309E-04   0.374255E+00   0.484592E+01
   0.151000E+04  -0.476397E-04   0.372730E-04   0.374261E+00   0.484592E+01
   0.152000E+04  -0.476290E-04   0.378094E-04   0.374273E+00   0.484592E+01
   0.153000E+04  -0.475649E-04   0.383703E-04   0.374264E+00   0.484592E+01
   0.154000E+04  -0.474776E-04   0.389360E-04   0.374249E+00   0.484592E+01
   0.155000E+04  -0.473785E-04   0.394990E-04   0.374234E+00   0.484592E+01
   0.156000E+04  -0.472971E-04   0.400431E-04   0.374257E+00   0.484592E+01
   0.157000E+04  -0.471949E-04   0.405946E-04   0.374264E+00   0.484592E+01
   0.158000E+04  -0.470508E-04   0.411660E-04   0.374253E+00   0.484592E+01
   0.159000E+04  -0.468824E-04   0.417446E-04   0.374237E+00   0.484592E+01
   0.160000E+04  -0.467155E-04   0.423139E-04   0.374238E+00   0.484592E+01
   0.161000E+04  -0.465589E-04   0.428702E-04   0.374253E+00   0.484592E+01
   0.162000E+04  -0.463611E-04   0.434463E-04   0.374250E+00   0.484592E+01
   0.163000E+04  -0.461349E-04   0.440327E-04   0.374238E+00   0.484592E+01
   0.164000E+04  -0.458944E-04   0.446191E-04   0.374228E+00   0.484592E+01
   0.165000E+04  -0.456707E-04   0.451873E-04   0.374243E+00   0.484592E+01
   0.166000E+04  -0.454300E-04   0.457607E-04   0.374251E+00   0.484592E+01
   0.167000E+04  -0.451440E-04   0.463564E-04   0.374238E+00   0.484592E+01
   0.168000E+04  -0.448373E-04   0.469565E-04   0.374223E+00   0.484592E+01
   0.169000E+04  -0.445313E-04   0.475470E-04   0.374217E+00   0.484592E+01
   0.170000E+04  -0.442502E-04   0.481151E-04   0.374236E+00   0.484592E+01
   0.171000E+04  -0.439343E-04   0.487013E-04   0.374240E+00   0.484592E+01
   0.172000E+04  -0.435843E-04   0.493042E-04   0.374228E+00   0.484592E+01
   0.173000E+04  -0.432249E-04   0.499059E-04   0.374218E+00   0.484592E+01
   0.174000E+04  -0.428802E-04   0.504915E-04   0.374225E+00   0.484592E+01
   0.175000E+04  -0.425310E-04   0.510750E-04   0.374236E+00   0.484592E+01
   0.176000E+04  -0.421370E-04   0.516815E-04   0.374221E+00   0.484592E+01
   0.177000E+04  -0.417243E-04   0.522907E-04   0.374202E+00   0.484592E+01
   0.178000E+04  -0.413348E-04   0.528761E-04   0.374217E+00   0.484592E+01
   0.179000E+04  -0.409640E-04   0.534450E-04   0.374230E+00   0.484592E+01
   0.180000E+04  -0.405474E-04   0.540407E-04   0.374224E+00   0.484592E+01
   0.181000E+04  -0.401065E-04   0.546475E-04   0.374208E+00   0.484592E+01
   0.182000E+04  -0.396677E-04   0.552475E-04   0.374195E+00   0.484592E+01
   0.183000E+04  -0.392599E-04   0.558240E-04   0.374214E+00   0.484592E+01
   0.184000E+04  -0.388353E-04   0.564117E-04   0.374223E+00   0.484592E+01
   0.185000E+04  -0.383620E-04   0.570309E-04   0.374208E+00   0.484592E+01
   0.186000E+04  -0.378737E-04   0.576557E-04   0.374196E+00   0.484592E+01
   0.187000E+04  -0.374065E-04   0.582631E-04   0.374208E+00   0.484592E+01
   0.188000E+04  -0.369394E-04   0.588693E-04   0.374222E+00   0.484592E+01
   0.189000E+04  -0.364143E-04   0.595125E-04   0.374208E+00   0.484592E+01
   0.190000E+04  -0.358590E-04   0.601698E-04   0.374186E+00   0.484592E+01
   0.191000E+04  -0.353115E-04   0.608148E-04   0.374190E+00   0.484592E+01
   0.192000E+04  -0.347904E-04   0.614386E-04   0.374211E+00   0.484592E+01
   0.193000E+04  -0.342244E-04   0.620912E-04   0.374213E+00   0.484592E+01
   0.194000E+04  -0.336059E-04   0.627753E-04   0.374193E+00   0.484592E+01
   0.195000E+04  -0.329762E-04   0.634602E-04   0.374179E+00   0.484592E+01
   0.196000E+04  -0.323696E-04   0.641241E-04   0.374198E+00   0.484592E+01
   0.197000E+04  -0.317468E-04   0.647968E-04   0.374211E+00   0.484592E+01
   0.198000E+04  -0.310608E-04   0.655089E-04   0.374196E+00   0.484592E+01
   0.199000E+04  -0.303408E-04   0.662360E-04   0.374174E+00   0.484592E+01
   0.200000E+04  -0.296318E-04   0.669462E-04   0.374185E+00   0.484592E+01
   0.201000E+04  -0.289394E-04   0.676393E-04   0.374205E+00   0.484592E+01
   0.202000E+04  -0.281891E-04   0.683671E-04   0.374201E+00   0.484592E+01
   0.203000E+04  -0.273877E-04   0.691214E-04   0.374180E+00   0.484592E+01
   0.204000E+04  -0.265776E-04   0.698703E-04   0.374168E+00   0.484592E+01
   0.205000E+04  -0.257930E-04   0.705920E-04   0.374191E+00   0.484592E+01
   0.206000E+04  -0.249839E-04   0.713239E-04   0.374202E+00   0.484592E+01
   0.207000E+04  -0.241128E-04   0.720906E-04   0.374185E+00   0.484592E+01
   0.208000E+04  -0.232117E-04   0.728654E-04   0.374164E+00   0.484592E+01
   0.209000E+04  -0.223264E-04   0.736156E-04   0.374177E+00   0.484592E+01
   0.210000E+04  -0.214569E-04   0.743453E-04   0.374197E+00   0.484592E+01
   0.211000E+04  -0.205299E-04   0.751058E-04   0.374191E+00   0.484592E+01
   0.212000E+04  -0.195583E-04   0.758849E-04   0.374170E+00   0.484592E+01
   0.213000E+04  -0.185843E-04   0.766504E-04   0.374159E+00   0.484592E+01
   0.214000E+04  -0.176421E-04   0.773813E-04   0.374183E+00   0.484592E+01
   0.215000E+04  -0.166782E-04   0.781181E-04   0.374193E+00   0.484592E+01
   0.216000E+04  -0.156588E-04   0.788834E-04   0.374177E+00   0.484592E+01
   0.217000E+04  -0.146175E-04   0.796496E-04   0.374155E+00   0.484592E+01
   0.218000E+04  -0.135996E-04   0.803847E-04   0.374169E+00   0.484592E+01
   0.219000E+04  -0.126039E-04   0.810941E-04   0.374188E+00   0.484592E+01
   0.220000E+04  -0.115575E-04   0.818298E-04   0.374182E+00   0.484592E+01
   0.221000E+04  -0.104743E-04   0.825789E-04   0.374161E+00   0.484592E+01
   0.222000E+04  -0.939695E-05   0.833095E-04   0.374151E+00   0.484592E+01
   0.223000E+04  -0.835885E-05   0.840011E-04   0.374175E+00   0.484592E+01
   0.224000E+04  -0.730625E-05   0.846953E-04   0.374185E+00   0.484592E+01
   0.225000E+04  -0.620571E-05   0.854149E-04   0.374168E+00   0.484592E+01
   0.226000E+04  -0.509099E-05   0.861321E-04   0.374147E+00   0.484592E+01
   0.227000E+04  -0.400710E-05   0.868155E-04   0.374160E+00   0.484592E+01
   0.228000E+04  -0.295236E-05   0.874708E-04   0.374179E+00   0.484592E+01
   0.229000E+04  -0.185405E-05   0.881508E-04   0.374174E+00   0.484592E+01
   0.230000E+04  -0.725881E-06   0.888427E-04   0.374152E+00   0.484592E+01
   0.231000E+04   0.389914E-06   0.895148E-04   0.374142E+00   0.484592E+01
   0.232000E+04   0.146027E-05   0.901469E-04   0.374166E+00   0.484592E+01
   0.233000E+04   0.253883E-05   0.907808E-04   0.374176E+00   0.484592E+01
   0.234000E+04   0.365940E-05   0.914399E-04   0.374159E+00   0.484592E+01
   0.235000E+04   0.478864E-05   0.920964E-04   0.374138E+00   0.484592E+01
   0.236000E+04   0.588180E-05   0.927190E-04   0.374151E+00   0.484592E+01
   0.237000E+04   0.694080E-05   0.933137E-04   0.374171E+00   0.484592E+01
   0.238000E+04   0.803821E-05   0.939332E-04   0.374165E+00   0.484592E+01
   0.239000E+04   0.916108E-05   0.945654E-04   0.374144E+00   0.484592E+01
   0.240000E+04   0.102675E-04   0.951783E-04   0.374133E+00   0.484592E+01
   0.241000E+04   0.113247E-04   0.957521E-04   0.374157E+00   0.484592E+01
   0.242000E+04   0.123862E-04   0.963283E-04   0.374168E+00   0.484592E+01
   0.243000E+04   0.134861E-04   0.969306E-04   0.374151E+00   0.484592E+01
   0.244000E+04   0.145917E-04   0.975315E-04   0.374129E+00   0.484592E+01
   0.245000E+04   0.156586E-04   0.980995E-04   0.374142E+00   0.484592E+01
   0.246000E+04   0.166885E-04   0.986405E-04   0.374163E+00   0.484592E+01
   0.247000E+04   0.177540E-04   0.992073E-04   0.374157E+00   0.484592E+01
   0.248000E+04   0.188430E-04   0.997880E-04   0.374135E+00   0.484592E+01
   0.249000E+04   0.199137E-04   0.100351E-03   0.374125E+00   0.484592E+01
   0.250000E+04   0.209337E-04   0.100875E-03   0.374149E+00   0.484592E+01
   0.251000E+04   0.219560E-04   0.101403E-03   0.374160E+00   0.484592E+01
   0.252000E+04   0.230152E-04   0.101958E-03   0.374143E+00   0.484592E+01
   0.253000E+04   0.240792E-04   0.102514E-03   0.374121E+00   0.484592E+01
   0.254000E+04   0.251037E-04   0.103037E-03   0.374134E+00   0.484592E+01
   0.255000E+04   0.260903E-04   0.103534E-03   0.374155E+00   0.484592E+01
   0.256000E+04   0.271112E-04   0.104058E-03   0.374149E+00   0.484592E+01
   0.257000E+04   0.281551E-04   0.104597E-03   0.374127E+00   0.484592E+01
   0.258000E+04   0.291807E-04   0.105119E-03   0.374116E+00   0.484592E+01
   0.259000E+04   0.301555E-04   0.105604E-03   0.374141E+00   0.484592E+01
   0.260000E+04   0.311318E-04   0.106093E-03   0.374152E+00   0.484592E+01
   0.261000E+04   0.321447E-04   0.106610E-03   0.374135E+00   0.484592E+01
   0.262000E+04   0.331626E-04   0.107128E-03   0.374113E+00   0.484592E+01
   0.263000E+04   0.341414E-04   0.107615E-03   0.374126E+00   0.484592E+01
   0.264000E+04   0.350823E-04   0.108077E-03   0.374147E+00   0.484592E+01
   0.265000E+04   0.360569E-04   0.108565E-03   0.374142E+00   0.484592E+01
   0.266000E+04   0.370550E-04   0.109070E-03   0.374120E+00   0.484592E+01
   0.267000E+04   0.380355E-04   0.109559E-03   0.374108E+00   0.484592E+01
   0.268000E+04   0.389658E-04   0.110011E-03   0.374134E+00   0.484592E+01
   0.269000E+04   0.398971E-04   0.110468E-03   0.374145E+00   0.484592E+01
   0.270000E+04   0.408653E-04   0.110953E-03   0.374128E+00   0.484592E+01
   0.271000E+04   0.418393E-04   0.111440E-03   0.374105E+00   0.484592E+01
   0.272000E+04   0.427751E-04   0.111898E-03   0.374118E+00   0.484592E+01
   0.273000E+04   0.436729E-04   0.112329E-03   0.374140E+00   0.484592E+01
   0.274000E+04   0.446044E-04   0.112788E-03   0.374135E+00   0.484592E+01
   0.275000E+04   0.455601E-04   0.113264E-03   0.374113E+00   0.484592E+01
   0.276000E+04   0.464992E-04   0.113725E-03   0.374101E+00   0.484592E+01
   0.277000E+04   0.473885E-04   0.114150E-03   0.374126E+00   0.484592E+01
   0.278000E+04   0.482788E-04   0.114578E-03   0.374138E+00   0.484592E+01
   0.279000E+04   0.492063E-04   0.115036E-03   0.374121E+00   0.484592E+01
   0.280000E+04   0.501404E-04   0.115497E-03   0.374098E+00   0.484592E+01
   0.281000E+04   0.510372E-04   0.115928E-03   0.374111E+00   0.484592E+01
   0.282000E+04   0.518961E-04   0.116334E-03   0.374133E+00   0.484592E+01
   0.283000E+04   0.527886E-04   0.116767E-03   0.374129E+00   0.484592E+01
   0.284000E+04   0.537060E-04   0.117218E-03   0.374106E+00   0.484592E+01
   0.285000E+04   0.546077E-04   0.117654E-03   0.374093E+00   0.484592E+01
   0.286000E+04   0.554603E-04   0.118054E-03   0.374119E+00   0.484592E+01
   0.287000E+04   0.563136E-04   0.118459E-03   0.374131E+00   0.484592E+01
   0.288000E+04   0.572043E-04   0.118893E-03   0.374114E+00   0.484592E+01
   0.289000E+04   0.581024E-04   0.119330E-03   0.374091E+00   0.484592E+01
   0.290000E+04   0.589641E-04   0.119738E-03   0.374104E+00   0.484592E+01
   0.291000E+04   0.597881E-04   0.120121E-03   0.374126E+00   0.484592E+01
   0.292000E+04   0.606453E-04   0.120531E-03   0.374122E+00   0.484592E+01
   0.293000E+04   0.615282E-04   0.121230E-03   0.374099E+00   0.484592E+01
   0.294000E+04   0.623962E-04   0.121909E-03   0.374086E+00   0.484592E+01
   0.295000E+04   0.632157E-04   0.122511E-03   0.374112E+00   0.484592E+01
   0.296000E+04   0.640355E-04   0.123117E-03   0.374125E+00   0.484592E+01
   0.297000E+04   0.648931E-04   0.123787E-03   0.374108E+00   0.484592E+01
   0.298000E+04   0.657587E-04   0.124472E-03   0.374085E+00   0.484592E+01
   0.299000E+04   0.665888E-04   0.125102E-03   0.374097E+00   0.484592E+01
   0.300000E+04   0.673811E-04   0.125673E-03   0.374120E+00   0.484592E+01
   0.301000E+04   0.682064E-04   0.126301E-03   0.374116E+00   0.484592E+01
   0.302000E+04   0.690580E-04   0.126973E-03   0.374093E+00   0.484592E+01
   0.303000E+04   0.698956E-04   0.127625E-03   0.374080E+00   0.484592E+01
   0.304000E+04   0.706853E-04   0.128202E-03   0.374106E+00   0.484592E+01
   0.305000E+04   0.714748E-04   0.128781E-03   0.374119E+00   0.484592E+01
   0.306000E+04   0.723023E-04   0.129423E-03   0.374102E+00   0.484592E+01
   0.307000E+04   0.731386E-04   0.130083E-03   0.374079E+00   0.484592E+01
   0.308000E+04   0.739403E-04   0.130688E-03   0.374090E+00   0.484592E+01
   0.309000E+04   0.747040E-04   0.131234E-03   0.374114E+00   0.484592E+01
   0.310000E+04   0.755004E-04   0.131836E-03   0.374111E+00   0.484592E+01
   0.311000E+04   0.763238E-04   0.132483E-03   0.374087E+00   0.484592E+01
   0.312000E+04   0.771340E-04   0.133111E-03   0.374073E+00   0.484592E+01
   0.313000E+04   0.778969E-04   0.133665E-03   0.374100E+00   0.484592E+01
   0.314000E+04   0.786588E-04   0.134218E-03   0.374113E+00   0.484592E+01
   0.315000E+04   0.794591E-04   0.134837E-03   0.374096E+00   0.484592E+01
   0.316000E+04   0.802688E-04   0.135473E-03   0.374073E+00   0.484592E+01
   0.317000E+04   0.810449E-04   0.136056E-03   0.374084E+00   0.484592E+01
   0.318000E+04   0.817826E-04   0.136578E-03   0.374108E+00   0.484592E+01
   0.319000E+04   0.825523E-04   0.137155E-03   0.374105E+00   0.484592E+01
   0.320000E+04   0.833498E-04   0.137779E-03   0.374082E+00   0.484592E+01
   0.321000E+04   0.841350E-04   0.138385E-03   0.374067E+00   0.484592E+01
   0.322000E+04   0.848734E-04   0.138917E-03   0.374094E+00   0.484592E+01
   0.323000E+04   0.856098E-04   0.139447E-03   0.374108E+00   0.484592E+01
   0.324000E+04   0.863847E-04   0.140042E-03   0.374091E+00   0.484592E+01
   0.325000E+04   0.871698E-04   0.140655E-03   0.374068E+00   0.484592E+01
   0.326000E+04   0.879222E-04   0.141217E-03   0.374078E+00   0.484592E+01
   0.327000E+04   0.886356E-04   0.141717E-03   0.374102E+00   0.484592E+01
   0.328000E+04   0.893802E-04   0.142270E-03   0.374100E+00   0.484592E+01
   0.329000E+04   0.901532E-04   0.142872E-03   0.374077E+00   0.484592E+01
   0.330000E+04   0.909150E-04   0.143457E-03   0.374061E+00   0.484592E+01
   0.331000E+04   0.916305E-04   0.143968E-03   0.374088E+00   0.484592E+01
   0.332000E+04   0.923424E-04   0.144475E-03   0.374102E+00   0.484592E+01
   0.333000E+04   0.930930E-04   0.145047E-03   0.374086E+00   0.484592E+01
   0.334000E+04   0.938546E-04   0.145639E-03   0.374063E+00   0.484592E+01
   0.335000E+04   0.945846E-04   0.146182E-03   0.374072E+00   0.484592E+01
   0.336000E+04   0.952749E-04   0.146660E-03   0.374096E+00   0.484592E+01
   0.337000E+04   0.959950E-04   0.147190E-03   0.374096E+00   0.484592E+01
   0.338000E+04   0.967444E-04   0.147770E-03   0.374072E+00   0.484592E+01
   0.339000E+04   0.974837E-04   0.148335E-03   0.374055E+00   0.484592E+01
   0.340000E+04   0.981774E-04   0.148827E-03   0.374082E+00   0.484592E+01
   0.341000E+04   0.988655E-04   0.149311E-03   0.374097E+00   0.484592E+01
   0.342000E+04   0.995924E-04   0.149861E-03   0.374081E+00   0.484592E+01
   0.343000E+04   0.100331E-03   0.150433E-03   0.374058E+00   0.484592E+01
   0.344000E+04   0.101040E-03   0.150957E-03   0.374065E+00   0.484592E+01
   0.345000E+04   0.101708E-03   0.151415E-03   0.374091E+00   0.484592E+01
   0.346000E+04   0.102404E-03   0.151922E-03   0.374091E+00   0.484592E+01
   0.347000E+04   0.103130E-03   0.152481E-03   0.374068E+00   0.484592E+01
   0.348000E+04   0.103848E-03   0.153028E-03   0.374050E+00   0.484592E+01
   0.349000E+04   0.104521E-03   0.153502E-03   0.374076E+00   0.484592E+01
   0.350000E+04   0.105185E-03   0.153964E-03   0.374092E+00   0.484592E+01
   0.351000E+04   0.105888E-03   0.154492E-03   0.374077E+00   0.484592E+01
   0.352000E+04   0.106605E-03   0.155045E-03   0.374054E+00   0.484592E+01
   0.353000E+04   0.107293E-03   0.155552E-03   0.374059E+00   0.484592E+01
   0.354000E+04   0.107939E-03   0.155991E-03   0.374085E+00   0.484592E+01
   0.355000E+04   0.108611E-03   0.156475E-03   0.374087E+00   0.484592E+01
   0.356000E+04   0.109314E-03   0.157013E-03   0.374064E+00   0.484592E+01
   0.357000E+04   0.110011E-03   0.157542E-03   0.374045E+00   0.484592E+01
   0.358000E+04   0.110664E-03   0.158000E-03   0.374070E+00   0.484592E+01
   0.359000E+04   0.111305E-03   0.158440E-03   0.374088E+00   0.484592E+01
   0.360000E+04   0.111984E-03   0.158946E-03   0.374074E+00   0.484592E+01
   0.361000E+04   0.112679E-03   0.159479E-03   0.374050E+00   0.484592E+01
   0.362000E+04   0.113347E-03   0.159970E-03   0.374053E+00   0.484592E+01
   0.363000E+04   0.113972E-03   0.160391E-03   0.374080E+00   0.484592E+01
   0.364000E+04   0.114619E-03   0.160852E-03   0.374084E+00   0.484592E+01
   0.365000E+04   0.115299E-03   0.161369E-03   0.374061E+00   0.484592E+01
   0.366000E+04   0.115975E-03   0.161880E-03   0.374040E+00   0.484592E+01
   0.367000E+04   0.116608E-03   0.162322E-03   0.374065E+00   0.484592E+01
   0.368000E+04   0.117225E-03   0.162741E-03   0.374084E+00   0.484592E+01
   0.369000E+04   0.117881E-03   0.163224E-03   0.374071E+00   0.484592E+01
   0.370000E+04   0.118553E-03   0.163737E-03   0.374047E+00   0.484592E+01
   0.371000E+04   0.119201E-03   0.164213E-03   0.374047E+00   0.484592E+01
   0.372000E+04   0.119805E-03   0.164616E-03   0.374075E+00   0.484592E+01
   0.373000E+04   0.120428E-03   0.165054E-03   0.374080E+00   0.484592E+01
   0.374000E+04   0.121085E-03   0.165549E-03   0.374058E+00   0.484592E+01
   0.375000E+04   0.121740E-03   0.166044E-03   0.374036E+00   0.484592E+01
   0.376000E+04   0.122353E-03   0.166471E-03   0.374060E+00   0.484592E+01
   0.377000E+04   0.122947E-03   0.166867E-03   0.374079E+00   0.484592E+01
   0.378000E+04   0.123579E-03   0.167329E-03   0.374068E+00   0.484592E+01
   0.379000E+04   0.124229E-03   0.167822E-03   0.374045E+00   0.484592E+01
   0.380000E+04   0.124857E-03   0.168282E-03   0.374042E+00   0.484592E+01
   0.381000E+04   0.125441E-03   0.168669E-03   0.374070E+00   0.484592E+01
   0.382000E+04   0.126040E-03   0.169084E-03   0.374077E+00   0.484592E+01
   0.383000E+04   0.126673E-03   0.169559E-03   0.374056E+00   0.484592E+01
   0.384000E+04   0.127308E-03   0.170036E-03   0.374033E+00   0.484592E+01
   0.385000E+04   0.127903E-03   0.170450E-03   0.374054E+00   0.484592E+01
   0.386000E+04   0.128475E-03   0.170826E-03   0.374076E+00   0.484592E+01
   0.387000E+04   0.129083E-03   0.171266E-03   0.374066E+00   0.484592E+01
   0.388000E+04   0.129711E-03   0.171742E-03   0.374042E+00   0.484592E+01
   0.389000E+04   0.130321E-03   0.172187E-03   0.374036E+00   0.484592E+01
   0.390000E+04   0.130885E-03   0.172560E-03   0.374065E+00   0.484592E+01
   0.391000E+04   0.131462E-03   0.172954E-03   0.374074E+00   0.484592E+01
   0.392000E+04   0.132074E-03   0.173410E-03   0.374053E+00   0.484592E+01
   0.393000E+04   0.132690E-03   0.173873E-03   0.374030E+00   0.484592E+01