title="breakthrough data set at     5 wells"
variables="time(days)","cavg","cpk","upk","zswi"
zone i=     1295
   0.100000E+02   0.233825E-10   0.404838E-10   0.461913E+00   0.486873E+01
   0.200000E+02   0.537847E-10   0.942626E-10   0.388912E+00   0.484133E+01
   0.300000E+02   0.107312E-09   0.188668E-09   0.388393E+00   0.484133E+01
   0.400000E+02   0.195553E-09   0.343914E-09   0.388092E+00   0.484133E+01
   0.500000E+02   0.333330E-09   0.585714E-09   0.387788E+00   0.484133E+01
   0.600000E+02   0.538932E-09   0.945477E-09   0.387505E+00   0.484133E+01
   0.700000E+02   0.834196E-09   0.146016E-08   0.387251E+00   0.484133E+01
   0.800000E+02   0.124454E-08   0.217196E-08   0.387025E+00   0.484133E+01
   0.900000E+02   0.179896E-08   0.312772E-08   0.386824E+00   0.484133E+01
   0.100000E+03   0.252988E-08   0.437800E-08   0.386645E+00   0.484133E+01
   0.110000E+03   0.347004E-08   0.597073E-08   0.386643E+00   0.484133E+01
   0.120000E+03   0.466137E-08   0.796605E-08   0.386461E+00   0.484133E+01
   0.130000E+03   0.614552E-08   0.104178E-07   0.386300E+00   0.484133E+01
   0.140000E+03   0.796615E-08   0.133769E-07   0.386157E+00   0.484133E+01
   0.150000E+03   0.101680E-07   0.168881E-07   0.386027E+00   0.484133E+01
   0.160000E+03   0.127953E-07   0.209870E-07   0.385912E+00   0.484133E+01
   0.170000E+03   0.158911E-07   0.256978E-07   0.385811E+00   0.484133E+01
   0.180000E+03   0.194965E-07   0.310327E-07   0.385718E+00   0.484133E+01
   0.190000E+03   0.236501E-07   0.369917E-07   0.385632E+00   0.484133E+01
   0.200000E+03   0.283870E-07   0.435622E-07   0.385558E+00   0.484133E+01
   0.210000E+03   0.337393E-07   0.507200E-07   0.385494E+00   0.484133E+01
   0.220000E+03   0.397355E-07   0.584290E-07   0.385430E+00   0.484133E+01
   0.230000E+03   0.463970E-07   0.666356E-07   0.385369E+00   0.484133E+01
   0.240000E+03   0.537505E-07   0.752938E-07   0.385279E+00   0.484133E+01
   0.250000E+03   0.617958E-07   0.879484E-07   0.385275E+00   0.484133E+01
   0.260000E+03   0.705358E-07   0.103667E-06   0.385203E+00   0.484133E+01
   0.270000E+03   0.799474E-07   0.121715E-06   0.385147E+00   0.484133E+01
   0.280000E+03   0.899905E-07   0.142321E-06   0.385155E+00   0.484133E+01
   0.290000E+03   0.100614E-06   0.165749E-06   0.385140E+00   0.484133E+01
   0.300000E+03   0.111749E-06   0.192270E-06   0.385093E+00   0.484133E+01
   0.310000E+03   0.123309E-06   0.222144E-06   0.385053E+00   0.484133E+01
   0.320000E+03   0.135208E-06   0.255607E-06   0.385066E+00   0.484133E+01
   0.330000E+03   0.147341E-06   0.292923E-06   0.385063E+00   0.484133E+01
   0.340000E+03   0.159585E-06   0.334367E-06   0.385023E+00   0.484133E+01
   0.350000E+03   0.171813E-06   0.380186E-06   0.384985E+00   0.484133E+01
   0.360000E+03   0.183935E-06   0.430579E-06   0.385007E+00   0.484133E+01
   0.370000E+03   0.195814E-06   0.485786E-06   0.385012E+00   0.484133E+01
   0.380000E+03   0.207287E-06   0.547266E-06   0.384985E+00   0.484133E+01
   0.390000E+03   0.218191E-06   0.620200E-06   0.384944E+00   0.484133E+01
   0.400000E+03   0.228469E-06   0.699699E-06   0.384971E+00   0.484133E+01
   0.410000E+03   0.237954E-06   0.786017E-06   0.384983E+00   0.484133E+01
   0.420000E+03   0.246453E-06   0.879425E-06   0.384968E+00   0.484133E+01
   0.430000E+03   0.253749E-06   0.980184E-06   0.384926E+00   0.484133E+01
   0.440000E+03   0.259848E-06   0.108833E-05   0.384951E+00   0.484133E+01
   0.450000E+03   0.264566E-06   0.120404E-05   0.384968E+00   0.484133E+01
   0.460000E+03   0.267702E-06   0.132747E-05   0.384967E+00   0.484133E+01
   0.470000E+03   0.268974E-06   0.145885E-05   0.384925E+00   0.484133E+01
   0.480000E+03   0.268449E-06   0.159811E-05   0.384941E+00   0.484133E+01
   0.490000E+03   0.265986E-06   0.174527E-05   0.384962E+00   0.484133E+01
   0.500000E+03   0.261420E-06   0.190038E-05   0.384976E+00   0.484133E+01
   0.510000E+03   0.254394E-06   0.206362E-05   0.384941E+00   0.484133E+01
   0.520000E+03   0.244938E-06   0.223487E-05   0.384933E+00   0.484133E+01
   0.530000E+03   0.233145E-06   0.241396E-05   0.384963E+00   0.484133E+01
   0.540000E+03   0.218832E-06   0.260082E-05   0.384985E+00   0.484133E+01
   0.550000E+03   0.201664E-06   0.279552E-05   0.384970E+00   0.484133E+01
   0.560000E+03   0.181456E-06   0.299802E-05   0.384938E+00   0.484133E+01
   0.570000E+03   0.158649E-06   0.320790E-05   0.384970E+00   0.484133E+01
   0.580000E+03   0.133058E-06   0.342502E-05   0.384995E+00   0.484133E+01
   0.590000E+03   0.104431E-06   0.364931E-05   0.384999E+00   0.484133E+01
   0.600000E+03   0.723705E-07   0.388077E-05   0.384963E+00   0.484133E+01
   0.610000E+03   0.374608E-07   0.411890E-05   0.384982E+00   0.484133E+01
   0.620000E+03  -0.347472E-09   0.436346E-05   0.385007E+00   0.484133E+01
   0.630000E+03  -0.411643E-07   0.461422E-05   0.385027E+00   0.484133E+01
   0.640000E+03  -0.855738E-07   0.487121E-05   0.384997E+00   0.484133E+01
   0.650000E+03  -0.133183E-06   0.513403E-05   0.384991E+00   0.484133E+01
   0.660000E+03  -0.183512E-06   0.540218E-05   0.385023E+00   0.484133E+01
   0.670000E+03  -0.236744E-06   0.567543E-05   0.385049E+00   0.484133E+01
   0.680000E+03  -0.293419E-06   0.595373E-05   0.385037E+00   0.484133E+01
   0.690000E+03  -0.353719E-06   0.623691E-05   0.385006E+00   0.484133E+01
   0.700000E+03  -0.416458E-06   0.652422E-05   0.385043E+00   0.484133E+01
   0.710000E+03  -0.481907E-06   0.681546E-05   0.385069E+00   0.484133E+01
   0.720000E+03  -0.550461E-06   0.711048E-05   0.385072E+00   0.484133E+01
   0.730000E+03  -0.622718E-06   0.740925E-05   0.385038E+00   0.484133E+01
   0.740000E+03  -0.697365E-06   0.771104E-05   0.385065E+00   0.484133E+01
   0.750000E+03  -0.774517E-06   0.801557E-05   0.385088E+00   0.484133E+01
   0.760000E+03  -0.854293E-06   0.832259E-05   0.385107E+00   0.484133E+01
   0.770000E+03  -0.937524E-06   0.863217E-05   0.385080E+00   0.484133E+01
   0.780000E+03  -0.102360E-05   0.894386E-05   0.385073E+00   0.484133E+01
   0.790000E+03  -0.111158E-05   0.925705E-05   0.385108E+00   0.484133E+01
   0.800000E+03  -0.120183E-05   0.957155E-05   0.385132E+00   0.484133E+01
   0.810000E+03  -0.129491E-05   0.988731E-05   0.385130E+00   0.484133E+01
   0.820000E+03  -0.139126E-05   0.102043E-04   0.385101E+00   0.484133E+01
   0.830000E+03  -0.148942E-05   0.105218E-04   0.385121E+00   0.484133E+01
   0.840000E+03  -0.158939E-05   0.108395E-04   0.385150E+00   0.484133E+01
   0.850000E+03  -0.169146E-05   0.111573E-04   0.385169E+00   0.484133E+01
   0.860000E+03  -0.179668E-05   0.114754E-04   0.385143E+00   0.484133E+01
   0.870000E+03  -0.190412E-05   0.117932E-04   0.385137E+00   0.484133E+01
   0.880000E+03  -0.201272E-05   0.121103E-04   0.385169E+00   0.484133E+01
   0.890000E+03  -0.212285E-05   0.124265E-04   0.385194E+00   0.484133E+01
   0.900000E+03  -0.223558E-05   0.127419E-04   0.385184E+00   0.484133E+01
   0.910000E+03  -0.235115E-05   0.130565E-04   0.385156E+00   0.484133E+01
   0.920000E+03  -0.246722E-05   0.133696E-04   0.385190E+00   0.484133E+01
   0.930000E+03  -0.258425E-05   0.136810E-04   0.385211E+00   0.484133E+01
   0.940000E+03  -0.270282E-05   0.139907E-04   0.385214E+00   0.484133E+01
   0.950000E+03  -0.282405E-05   0.142990E-04   0.385182E+00   0.484133E+01
   0.960000E+03  -0.294636E-05   0.146053E-04   0.385195E+00   0.484133E+01
   0.970000E+03  -0.306921E-05   0.149093E-04   0.385227E+00   0.484133E+01
   0.980000E+03  -0.319300E-05   0.152109E-04   0.385247E+00   0.484133E+01
   0.990000E+03  -0.331857E-05   0.155104E-04   0.385231E+00   0.484133E+01
   0.100000E+04  -0.344579E-05   0.158076E-04   0.385208E+00   0.484133E+01
   0.101000E+04  -0.357330E-05   0.161020E-04   0.385228E+00   0.484133E+01
   0.102000E+04  -0.370139E-05   0.163936E-04   0.385258E+00   0.484133E+01
   0.103000E+04  -0.383085E-05   0.166824E-04   0.385271E+00   0.484133E+01
   0.104000E+04  -0.396292E-05   0.169687E-04   0.385242E+00   0.484133E+01
   0.105000E+04  -0.409554E-05   0.172520E-04   0.385250E+00   0.484133E+01
   0.106000E+04  -0.422823E-05   0.175321E-04   0.385274E+00   0.484133E+01
   0.107000E+04  -0.436178E-05   0.178090E-04   0.385290E+00   0.484133E+01
   0.108000E+04  -0.449784E-05   0.180831E-04   0.385270E+00   0.484133E+01
   0.109000E+04  -0.463603E-05   0.183543E-04   0.385257E+00   0.484133E+01
   0.110000E+04  -0.477441E-05   0.186220E-04   0.385292E+00   0.484133E+01
   0.111000E+04  -0.491366E-05   0.188862E-04   0.385315E+00   0.484133E+01
   0.112000E+04  -0.505469E-05   0.191473E-04   0.385313E+00   0.484133E+01
   0.113000E+04  -0.519854E-05   0.194054E-04   0.385281E+00   0.484133E+01
   0.114000E+04  -0.534368E-05   0.196601E-04   0.385290E+00   0.484133E+01
   0.115000E+04  -0.548995E-05   0.199112E-04   0.385321E+00   0.484133E+01
   0.116000E+04  -0.563821E-05   0.201590E-04   0.385342E+00   0.484133E+01
   0.117000E+04  -0.578969E-05   0.204036E-04   0.385329E+00   0.484133E+01
   0.118000E+04  -0.594393E-05   0.206450E-04   0.385312E+00   0.484133E+01
   0.119000E+04  -0.609929E-05   0.208827E-04   0.385335E+00   0.484133E+01
   0.120000E+04  -0.625650E-05   0.211170E-04   0.385359E+00   0.484133E+01
   0.121000E+04  -0.641726E-05   0.213480E-04   0.385356E+00   0.484133E+01
   0.122000E+04  -0.658272E-05   0.215762E-04   0.385325E+00   0.484133E+01
   0.123000E+04  -0.674998E-05   0.218007E-04   0.385354E+00   0.484133E+01
   0.124000E+04  -0.691950E-05   0.220216E-04   0.385376E+00   0.484133E+01
   0.125000E+04  -0.709195E-05   0.222392E-04   0.385385E+00   0.484133E+01
   0.126000E+04  -0.726888E-05   0.224538E-04   0.385358E+00   0.484133E+01
   0.127000E+04  -0.744949E-05   0.226652E-04   0.385351E+00   0.484133E+01
   0.128000E+04  -0.763265E-05   0.228731E-04   0.385381E+00   0.484133E+01
   0.129000E+04  -0.781909E-05   0.230776E-04   0.385406E+00   0.484133E+01
   0.130000E+04  -0.800974E-05   0.232790E-04   0.385404E+00   0.484133E+01
   0.131000E+04  -0.820505E-05   0.234775E-04   0.385378E+00   0.484133E+01
   0.132000E+04  -0.840326E-05   0.236725E-04   0.385388E+00   0.484133E+01
   0.133000E+04  -0.860435E-05   0.238643E-04   0.385412E+00   0.484133E+01
   0.134000E+04  -0.880931E-05   0.240528E-04   0.385429E+00   0.484133E+01
   0.135000E+04  -0.901989E-05   0.242386E-04   0.385403E+00   0.484133E+01
   0.136000E+04  -0.923449E-05   0.244213E-04   0.385401E+00   0.484133E+01
   0.137000E+04  -0.945147E-05   0.246006E-04   0.385429E+00   0.484133E+01
   0.138000E+04  -0.967164E-05   0.247768E-04   0.385444E+00   0.484133E+01
   0.139000E+04  -0.989619E-05   0.249500E-04   0.385434E+00   0.484133E+01
   0.140000E+04  -0.101256E-04   0.251205E-04   0.385409E+00   0.484133E+01
   0.141000E+04  -0.103580E-04   0.252879E-04   0.385428E+00   0.484133E+01
   0.142000E+04  -0.105931E-04   0.254522E-04   0.385457E+00   0.484133E+01
   0.143000E+04  -0.108317E-04   0.256134E-04   0.385469E+00   0.484133E+01
   0.144000E+04  -0.110745E-04   0.257720E-04   0.385445E+00   0.484133E+01
   0.145000E+04  -0.113206E-04   0.259278E-04   0.385434E+00   0.484133E+01
   0.146000E+04  -0.115687E-04   0.260805E-04   0.385460E+00   0.484133E+01
   0.147000E+04  -0.118193E-04   0.262302E-04   0.385484E+00   0.484133E+01
   0.148000E+04  -0.120738E-04   0.263773E-04   0.385476E+00   0.484133E+01
   0.149000E+04  -0.123320E-04   0.265219E-04   0.385448E+00   0.484133E+01
   0.150000E+04  -0.125913E-04   0.266635E-04   0.385472E+00   0.484133E+01
   0.151000E+04  -0.128520E-04   0.268021E-04   0.385491E+00   0.484133E+01
   0.152000E+04  -0.131148E-04   0.269380E-04   0.385497E+00   0.484133E+01
   0.153000E+04  -0.133806E-04   0.270715E-04   0.385474E+00   0.484133E+01
   0.154000E+04  -0.136481E-04   0.272025E-04   0.385472E+00   0.484133E+01
   0.155000E+04  -0.139161E-04   0.273305E-04   0.385499E+00   0.484133E+01
   0.156000E+04  -0.141847E-04   0.274558E-04   0.385518E+00   0.484133E+01
   0.157000E+04  -0.144547E-04   0.275787E-04   0.385508E+00   0.484133E+01
   0.158000E+04  -0.147263E-04   0.276993E-04   0.385481E+00   0.484133E+01
   0.159000E+04  -0.149975E-04   0.278171E-04   0.385501E+00   0.484133E+01
   0.160000E+04  -0.152682E-04   0.279323E-04   0.385530E+00   0.484133E+01
   0.161000E+04  -0.155389E-04   0.280450E-04   0.385538E+00   0.484133E+01
   0.162000E+04  -0.158104E-04   0.281557E-04   0.385507E+00   0.484133E+01
   0.163000E+04  -0.160809E-04   0.282639E-04   0.385505E+00   0.484133E+01
   0.164000E+04  -0.163495E-04   0.283694E-04   0.385528E+00   0.484133E+01
   0.165000E+04  -0.166166E-04   0.284725E-04   0.385544E+00   0.484133E+01
   0.166000E+04  -0.168829E-04   0.285736E-04   0.385537E+00   0.484133E+01
   0.167000E+04  -0.171481E-04   0.286725E-04   0.385521E+00   0.484133E+01
   0.168000E+04  -0.174107E-04   0.287691E-04   0.385533E+00   0.484133E+01
   0.169000E+04  -0.176702E-04   0.288632E-04   0.385555E+00   0.484133E+01
   0.170000E+04  -0.179269E-04   0.289552E-04   0.385562E+00   0.484133E+01
   0.171000E+04  -0.181818E-04   0.290453E-04   0.385533E+00   0.484133E+01
   0.172000E+04  -0.184336E-04   0.291334E-04   0.385532E+00   0.484133E+01
   0.173000E+04  -0.186811E-04   0.292192E-04   0.385564E+00   0.484133E+01
   0.174000E+04  -0.189244E-04   0.293029E-04   0.385584E+00   0.484133E+01
   0.175000E+04  -0.191642E-04   0.293848E-04   0.385567E+00   0.484133E+01
   0.176000E+04  -0.194001E-04   0.294651E-04   0.385537E+00   0.484133E+01
   0.177000E+04  -0.196308E-04   0.295432E-04   0.385554E+00   0.484133E+01
   0.178000E+04  -0.198562E-04   0.296193E-04   0.385578E+00   0.484133E+01
   0.179000E+04  -0.200765E-04   0.296937E-04   0.385590E+00   0.484133E+01
   0.180000E+04  -0.202923E-04   0.297667E-04   0.385571E+00   0.484133E+01
   0.181000E+04  -0.205025E-04   0.298380E-04   0.385565E+00   0.484133E+01
   0.182000E+04  -0.207062E-04   0.299073E-04   0.385584E+00   0.484133E+01
   0.183000E+04  -0.209035E-04   0.299749E-04   0.385601E+00   0.484133E+01
   0.184000E+04  -0.210953E-04   0.300412E-04   0.385588E+00   0.484133E+01
   0.185000E+04  -0.212815E-04   0.301064E-04   0.385561E+00   0.484133E+01
   0.186000E+04  -0.214607E-04   0.301698E-04   0.385592E+00   0.484133E+01
   0.187000E+04  -0.216331E-04   0.302317E-04   0.385614E+00   0.484133E+01
   0.188000E+04  -0.217986E-04   0.302922E-04   0.385617E+00   0.484133E+01
   0.189000E+04  -0.219579E-04   0.303517E-04   0.385585E+00   0.484133E+01
   0.190000E+04  -0.221103E-04   0.304101E-04   0.385578E+00   0.484133E+01
   0.191000E+04  -0.222554E-04   0.304670E-04   0.385605E+00   0.484133E+01
   0.192000E+04  -0.223934E-04   0.305228E-04   0.385627E+00   0.484133E+01
   0.193000E+04  -0.225246E-04   0.305776E-04   0.385622E+00   0.484133E+01
   0.194000E+04  -0.226491E-04   0.306317E-04   0.385596E+00   0.484133E+01
   0.195000E+04  -0.227662E-04   0.306846E-04   0.385609E+00   0.484133E+01
   0.196000E+04  -0.228757E-04   0.307364E-04   0.385630E+00   0.484133E+01
   0.197000E+04  -0.229781E-04   0.307873E-04   0.385636E+00   0.484133E+01
   0.198000E+04  -0.230737E-04   0.308380E-04   0.385608E+00   0.484133E+01
   0.199000E+04  -0.231621E-04   0.308878E-04   0.385611E+00   0.484133E+01
   0.200000E+04  -0.232431E-04   0.309367E-04   0.385638E+00   0.484133E+01
   0.201000E+04  -0.233168E-04   0.309848E-04   0.385650E+00   0.484133E+01
   0.202000E+04  -0.233834E-04   0.310324E-04   0.385635E+00   0.484133E+01
   0.203000E+04  -0.234430E-04   0.310798E-04   0.385613E+00   0.484133E+01
   0.204000E+04  -0.234954E-04   0.311265E-04   0.385626E+00   0.484133E+01
   0.205000E+04  -0.235406E-04   0.311726E-04   0.385653E+00   0.484133E+01
   0.206000E+04  -0.235787E-04   0.312182E-04   0.385667E+00   0.484133E+01
   0.207000E+04  -0.236101E-04   0.312638E-04   0.385637E+00   0.484133E+01
   0.208000E+04  -0.236346E-04   0.313091E-04   0.385627E+00   0.484133E+01
   0.209000E+04  -0.236521E-04   0.313538E-04   0.385652E+00   0.484133E+01
   0.210000E+04  -0.236625E-04   0.313982E-04   0.385671E+00   0.484133E+01
   0.211000E+04  -0.236659E-04   0.314426E-04   0.385661E+00   0.484133E+01
   0.212000E+04  -0.236626E-04   0.314873E-04   0.385636E+00   0.484133E+01
   0.213000E+04  -0.236526E-04   0.315315E-04   0.385652E+00   0.484133E+01
   0.214000E+04  -0.236359E-04   0.315753E-04   0.385671E+00   0.484133E+01
   0.215000E+04  -0.236125E-04   0.316191E-04   0.385677E+00   0.484133E+01
   0.216000E+04  -0.235825E-04   0.316632E-04   0.385655E+00   0.484133E+01
   0.217000E+04  -0.235459E-04   0.317075E-04   0.385649E+00   0.484133E+01
   0.218000E+04  -0.235027E-04   0.317514E-04   0.385675E+00   0.484133E+01
   0.219000E+04  -0.234531E-04   0.317953E-04   0.385695E+00   0.484133E+01
   0.220000E+04  -0.233970E-04   0.318394E-04   0.385682E+00   0.484133E+01
   0.221000E+04  -0.233346E-04   0.318840E-04   0.385645E+00   0.484133E+01
   0.222000E+04  -0.232661E-04   0.319284E-04   0.385668E+00   0.484133E+01
   0.223000E+04  -0.231914E-04   0.319728E-04   0.385691E+00   0.484133E+01
   0.224000E+04  -0.231102E-04   0.320174E-04   0.385702E+00   0.484133E+01
   0.225000E+04  -0.230226E-04   0.320625E-04   0.385678E+00   0.484133E+01
   0.226000E+04  -0.229290E-04   0.321079E-04   0.385665E+00   0.484133E+01
   0.227000E+04  -0.228297E-04   0.321531E-04   0.385683E+00   0.484133E+01
   0.228000E+04  -0.227246E-04   0.321985E-04   0.385700E+00   0.484133E+01
   0.229000E+04  -0.226134E-04   0.322443E-04   0.385698E+00   0.484133E+01
   0.230000E+04  -0.224960E-04   0.322908E-04   0.385674E+00   0.484133E+01
   0.231000E+04  -0.223730E-04   0.323374E-04   0.385689E+00   0.484133E+01
   0.232000E+04  -0.222444E-04   0.323840E-04   0.385712E+00   0.484133E+01
   0.233000E+04  -0.221102E-04   0.324308E-04   0.385716E+00   0.484133E+01
   0.234000E+04  -0.219699E-04   0.324784E-04   0.385684E+00   0.484133E+01
   0.235000E+04  -0.218239E-04   0.325264E-04   0.385674E+00   0.484133E+01
   0.236000E+04  -0.216729E-04   0.325744E-04   0.385704E+00   0.484133E+01
   0.237000E+04  -0.215164E-04   0.326227E-04   0.385725E+00   0.484133E+01
   0.238000E+04  -0.213542E-04   0.326715E-04   0.385719E+00   0.484133E+01
   0.239000E+04  -0.211864E-04   0.327209E-04   0.385689E+00   0.484133E+01
   0.240000E+04  -0.210136E-04   0.327704E-04   0.385690E+00   0.484133E+01
   0.241000E+04  -0.208361E-04   0.328201E-04   0.385712E+00   0.484133E+01
   0.242000E+04  -0.206535E-04   0.328702E-04   0.385731E+00   0.484133E+01
   0.243000E+04  -0.204652E-04   0.329210E-04   0.385710E+00   0.484133E+01
   0.244000E+04  -0.202718E-04   0.329723E-04   0.385696E+00   0.484133E+01
   0.245000E+04  -0.200743E-04   0.330236E-04   0.385720E+00   0.484133E+01
   0.246000E+04  -0.198721E-04   0.330751E-04   0.385734E+00   0.484133E+01
   0.247000E+04  -0.196648E-04   0.331271E-04   0.385725E+00   0.484133E+01
   0.248000E+04  -0.194521E-04   0.331800E-04   0.385694E+00   0.484133E+01
   0.249000E+04  -0.192351E-04   0.332331E-04   0.385709E+00   0.484133E+01
   0.250000E+04  -0.190140E-04   0.332863E-04   0.385735E+00   0.484133E+01
   0.251000E+04  -0.187887E-04   0.333399E-04   0.385745E+00   0.484133E+01
   0.252000E+04  -0.185585E-04   0.333941E-04   0.385722E+00   0.484133E+01
   0.253000E+04  -0.183238E-04   0.334488E-04   0.385702E+00   0.484133E+01
   0.254000E+04  -0.180854E-04   0.335036E-04   0.385723E+00   0.484133E+01
   0.255000E+04  -0.178430E-04   0.335587E-04   0.385748E+00   0.484133E+01
   0.256000E+04  -0.175961E-04   0.336143E-04   0.385748E+00   0.484133E+01
   0.257000E+04  -0.173444E-04   0.336707E-04   0.385712E+00   0.484133E+01
   0.258000E+04  -0.170894E-04   0.337272E-04   0.385722E+00   0.484133E+01
   0.259000E+04  -0.168314E-04   0.337838E-04   0.385741E+00   0.484133E+01
   0.260000E+04  -0.165695E-04   0.338407E-04   0.385750E+00   0.484133E+01
   0.261000E+04  -0.163030E-04   0.338983E-04   0.385733E+00   0.484133E+01
   0.262000E+04  -0.160324E-04   0.339565E-04   0.385719E+00   0.484133E+01
   0.263000E+04  -0.157589E-04   0.340148E-04   0.385737E+00   0.484133E+01
   0.264000E+04  -0.154826E-04   0.340731E-04   0.385756E+00   0.484133E+01
   0.265000E+04  -0.152030E-04   0.341318E-04   0.385754E+00   0.484133E+01
   0.266000E+04  -0.149192E-04   0.341913E-04   0.385723E+00   0.484133E+01
   0.267000E+04  -0.146323E-04   0.342511E-04   0.385725E+00   0.484133E+01
   0.268000E+04  -0.143428E-04   0.343109E-04   0.385755E+00   0.484133E+01
   0.269000E+04  -0.140502E-04   0.343710E-04   0.385772E+00   0.484133E+01
   0.270000E+04  -0.137536E-04   0.344316E-04   0.385747E+00   0.484133E+01
   0.271000E+04  -0.134537E-04   0.344928E-04   0.385721E+00   0.484133E+01
   0.272000E+04  -0.131521E-04   0.345540E-04   0.385740E+00   0.484133E+01
   0.273000E+04  -0.128480E-04   0.346153E-04   0.385761E+00   0.484133E+01
   0.274000E+04  -0.125406E-04   0.346771E-04   0.385766E+00   0.484133E+01
   0.275000E+04  -0.122293E-04   0.347395E-04   0.385743E+00   0.484133E+01
   0.276000E+04  -0.119155E-04   0.348021E-04   0.385739E+00   0.484133E+01
   0.277000E+04  -0.116003E-04   0.348646E-04   0.385757E+00   0.484133E+01
   0.278000E+04  -0.112832E-04   0.349272E-04   0.385772E+00   0.484133E+01
   0.279000E+04  -0.109627E-04   0.349904E-04   0.385755E+00   0.484133E+01
   0.280000E+04  -0.106387E-04   0.350542E-04   0.385729E+00   0.484133E+01
   0.281000E+04  -0.103134E-04   0.351179E-04   0.385759E+00   0.484133E+01
   0.282000E+04  -0.998631E-05   0.351817E-04   0.385779E+00   0.484133E+01
   0.283000E+04  -0.965680E-05   0.352457E-04   0.385779E+00   0.484133E+01
   0.284000E+04  -0.932400E-05   0.353103E-04   0.385742E+00   0.484133E+01
   0.285000E+04  -0.898937E-05   0.353750E-04   0.385736E+00   0.484133E+01
   0.286000E+04  -0.865370E-05   0.354398E-04   0.385764E+00   0.484133E+01
   0.287000E+04  -0.831609E-05   0.355047E-04   0.385783E+00   0.484133E+01
   0.288000E+04  -0.797567E-05   0.355700E-04   0.385775E+00   0.484133E+01
   0.289000E+04  -0.763252E-05   0.356357E-04   0.385748E+00   0.484133E+01
   0.290000E+04  -0.728857E-05   0.357014E-04   0.385758E+00   0.484133E+01
   0.291000E+04  -0.694367E-05   0.357669E-04   0.385778E+00   0.484133E+01
   0.292000E+04  -0.659665E-05   0.358327E-04   0.385783E+00   0.484133E+01
   0.293000E+04  -0.624611E-05   0.358992E-04   0.385755E+00   0.484133E+01
   0.294000E+04  -0.589384E-05   0.359658E-04   0.385753E+00   0.484133E+01
   0.295000E+04  -0.554118E-05   0.360323E-04   0.385780E+00   0.484133E+01
   0.296000E+04  -0.518732E-05   0.360987E-04   0.385790E+00   0.484133E+01
   0.297000E+04  -0.483114E-05   0.361654E-04   0.385775E+00   0.484133E+01
   0.298000E+04  -0.447237E-05   0.362326E-04   0.385750E+00   0.484133E+01
   0.299000E+04  -0.411252E-05   0.362997E-04   0.385759E+00   0.484133E+01
   0.300000E+04  -0.375198E-05   0.363668E-04   0.385786E+00   0.484133E+01
   0.301000E+04  -0.339014E-05   0.364338E-04   0.385801E+00   0.484133E+01
   0.302000E+04  -0.302568E-05   0.365014E-04   0.385771E+00   0.484133E+01
   0.303000E+04  -0.265970E-05   0.365691E-04   0.385753E+00   0.484133E+01
   0.304000E+04  -0.229372E-05   0.366366E-04   0.385777E+00   0.484133E+01
   0.305000E+04  -0.192658E-05   0.367041E-04   0.385797E+00   0.484133E+01
   0.306000E+04  -0.155694E-05   0.367719E-04   0.385790E+00   0.484133E+01
   0.307000E+04  -0.118443E-05   0.368401E-04   0.385760E+00   0.484133E+01
   0.308000E+04  -0.811804E-06   0.369082E-04   0.385771E+00   0.484133E+01
   0.309000E+04  -0.439243E-06   0.369761E-04   0.385790E+00   0.484133E+01
   0.310000E+04  -0.655537E-07   0.370441E-04   0.385797E+00   0.484133E+01
   0.311000E+04   0.310770E-06   0.371124E-04   0.385777E+00   0.484133E+01
   0.312000E+04   0.689133E-06   0.371810E-04   0.385764E+00   0.484133E+01
   0.313000E+04   0.106773E-05   0.372495E-04   0.385786E+00   0.484133E+01
   0.314000E+04   0.144666E-05   0.373177E-04   0.385807E+00   0.484133E+01
   0.315000E+04   0.182698E-05   0.373860E-04   0.385801E+00   0.484133E+01
   0.316000E+04   0.221006E-05   0.374549E-04   0.385760E+00   0.484133E+01
   0.317000E+04   0.259330E-05   0.375236E-04   0.385771E+00   0.484133E+01
   0.318000E+04   0.297679E-05   0.375921E-04   0.385797E+00   0.484133E+01
   0.319000E+04   0.336166E-05   0.376607E-04   0.385811E+00   0.484133E+01
   0.320000E+04   0.374891E-05   0.377295E-04   0.385792E+00   0.484133E+01
   0.321000E+04   0.413765E-05   0.377985E-04   0.385768E+00   0.484133E+01
   0.322000E+04   0.452587E-05   0.378673E-04   0.385781E+00   0.484133E+01
   0.323000E+04   0.491410E-05   0.379359E-04   0.385800E+00   0.484133E+01
   0.324000E+04   0.530376E-05   0.380046E-04   0.385805E+00   0.484133E+01
   0.325000E+04   0.569624E-05   0.380738E-04   0.385781E+00   0.484133E+01
   0.326000E+04   0.608960E-05   0.381430E-04   0.385779E+00   0.484133E+01
   0.327000E+04   0.648232E-05   0.382119E-04   0.385804E+00   0.484133E+01
   0.328000E+04   0.687534E-05   0.382806E-04   0.385814E+00   0.484133E+01
   0.329000E+04   0.727053E-05   0.383496E-04   0.385791E+00   0.484133E+01
   0.330000E+04   0.766783E-05   0.384189E-04   0.385766E+00   0.484133E+01
   0.331000E+04   0.806481E-05   0.384881E-04   0.385790E+00   0.484133E+01
   0.332000E+04   0.846191E-05   0.385570E-04   0.385815E+00   0.484133E+01
   0.333000E+04   0.886014E-05   0.386260E-04   0.385818E+00   0.484133E+01
   0.334000E+04   0.926050E-05   0.386953E-04   0.385787E+00   0.484133E+01
   0.335000E+04   0.966147E-05   0.387645E-04   0.385774E+00   0.484133E+01
   0.336000E+04   0.100618E-04   0.388335E-04   0.385794E+00   0.484133E+01
   0.337000E+04   0.104624E-04   0.389024E-04   0.385818E+00   0.484133E+01
   0.338000E+04   0.108650E-04   0.389714E-04   0.385811E+00   0.484133E+01
   0.339000E+04   0.112700E-04   0.390409E-04   0.385779E+00   0.484133E+01
   0.340000E+04   0.116738E-04   0.391100E-04   0.385797E+00   0.484133E+01
   0.341000E+04   0.120772E-04   0.391789E-04   0.385812E+00   0.484133E+01
   0.342000E+04   0.124814E-04   0.392477E-04   0.385816E+00   0.484133E+01
   0.343000E+04   0.128882E-04   0.393170E-04   0.385788E+00   0.484133E+01
   0.344000E+04   0.132961E-04   0.393863E-04   0.385781E+00   0.484133E+01
   0.345000E+04   0.137030E-04   0.394554E-04   0.385809E+00   0.484133E+01
   0.346000E+04   0.141096E-04   0.395243E-04   0.385824E+00   0.484133E+01
   0.347000E+04   0.145173E-04   0.395932E-04   0.385813E+00   0.484133E+01
   0.348000E+04   0.149271E-04   0.396625E-04   0.385781E+00   0.484133E+01
   0.349000E+04   0.153366E-04   0.397317E-04   0.385789E+00   0.484133E+01
   0.350000E+04   0.157457E-04   0.398006E-04   0.385817E+00   0.484133E+01
   0.351000E+04   0.161552E-04   0.398695E-04   0.385831E+00   0.484133E+01
   0.352000E+04   0.165669E-04   0.399386E-04   0.385804E+00   0.484133E+01
   0.353000E+04   0.169795E-04   0.400079E-04   0.385782E+00   0.484133E+01
   0.354000E+04   0.173904E-04   0.400768E-04   0.385804E+00   0.484133E+01
   0.355000E+04   0.178011E-04   0.401456E-04   0.385821E+00   0.484133E+01
   0.356000E+04   0.182133E-04   0.402145E-04   0.385819E+00   0.484133E+01
   0.357000E+04   0.186278E-04   0.402836E-04   0.385795E+00   0.484133E+01
   0.358000E+04   0.190420E-04   0.403527E-04   0.385795E+00   0.484133E+01
   0.359000E+04   0.194546E-04   0.404214E-04   0.385816E+00   0.484133E+01
   0.360000E+04   0.198666E-04   0.404899E-04   0.385828E+00   0.484133E+01
   0.361000E+04   0.202803E-04   0.405587E-04   0.385807E+00   0.484133E+01
   0.362000E+04   0.206958E-04   0.406278E-04   0.385783E+00   0.484133E+01
   0.363000E+04   0.211100E-04   0.406966E-04   0.385812E+00   0.484133E+01
   0.364000E+04   0.215236E-04   0.407651E-04   0.385835E+00   0.484133E+01
   0.365000E+04   0.219378E-04   0.408336E-04   0.385830E+00   0.484133E+01
   0.366000E+04   0.223540E-04   0.409025E-04   0.385790E+00   0.484133E+01
   0.367000E+04   0.227695E-04   0.409712E-04   0.385790E+00   0.484133E+01
   0.368000E+04   0.231835E-04   0.410397E-04   0.385816E+00   0.484133E+01
   0.369000E+04   0.235976E-04   0.411081E-04   0.385833E+00   0.484133E+01
   0.370000E+04   0.240134E-04   0.411767E-04   0.385822E+00   0.484133E+01
   0.371000E+04   0.244305E-04   0.412454E-04   0.385798E+00   0.484133E+01
   0.372000E+04   0.248460E-04   0.413139E-04   0.385807E+00   0.484133E+01
   0.373000E+04   0.252600E-04   0.413821E-04   0.385824E+00   0.484133E+01
   0.374000E+04   0.256740E-04   0.414501E-04   0.385832E+00   0.484133E+01
   0.375000E+04   0.260907E-04   0.415186E-04   0.385801E+00   0.484133E+01
   0.376000E+04   0.265075E-04   0.415872E-04   0.385799E+00   0.484133E+01
   0.377000E+04   0.269224E-04   0.416553E-04   0.385827E+00   0.484133E+01
   0.378000E+04   0.273365E-04   0.417233E-04   0.385838E+00   0.484133E+01
   0.379000E+04   0.277514E-04   0.417913E-04   0.385821E+00   0.484133E+01
   0.380000E+04   0.281677E-04   0.418595E-04   0.385791E+00   0.484133E+01
   0.381000E+04   0.285828E-04   0.419275E-04   0.385801E+00   0.484133E+01
   0.382000E+04   0.289963E-04   0.419953E-04   0.385830E+00   0.484133E+01
   0.383000E+04   0.294096E-04   0.420629E-04   0.385843E+00   0.484133E+01
   0.384000E+04   0.298243E-04   0.421307E-04   0.385818E+00   0.484133E+01
   0.385000E+04   0.302391E-04   0.421987E-04   0.385795E+00   0.484133E+01
   0.386000E+04   0.306514E-04   0.422662E-04   0.385817E+00   0.484133E+01
   0.387000E+04   0.310626E-04   0.423335E-04   0.385837E+00   0.484133E+01
   0.388000E+04   0.314750E-04   0.424009E-04   0.385830E+00   0.484133E+01
   0.389000E+04   0.318892E-04   0.424686E-04   0.385801E+00   0.484133E+01
   0.390000E+04   0.323015E-04   0.425360E-04   0.385812E+00   0.484133E+01
   0.391000E+04   0.327114E-04   0.426031E-04   0.385832E+00   0.484133E+01
   0.392000E+04   0.331205E-04   0.426701E-04   0.385837E+00   0.484133E+01
   0.393000E+04   0.335308E-04   0.427372E-04   0.385816E+00   0.484133E+01