title="breakthrough data set at     5 wells"
variables="time(days)","cavg","cpk","upk","zswi"
zone i=     1295
   0.100000E+02   0.293269E-09   0.562658E-09   0.471153E+00   0.485454E+01
   0.200000E+02   0.642498E-09   0.122083E-08   0.374354E+00   0.482931E+01
   0.300000E+02   0.123911E-08   0.233200E-08   0.373978E+00   0.482931E+01
   0.400000E+02   0.219605E-08   0.409474E-08   0.374090E+00   0.482931E+01
   0.500000E+02   0.365254E-08   0.674901E-08   0.374201E+00   0.482931E+01
   0.600000E+02   0.577489E-08   0.105760E-07   0.374308E+00   0.482931E+01
   0.700000E+02   0.875516E-08   0.158937E-07   0.374404E+00   0.482931E+01
   0.800000E+02   0.128058E-07   0.230455E-07   0.374500E+00   0.482931E+01
   0.900000E+02   0.181556E-07   0.323919E-07   0.374587E+00   0.482931E+01
   0.100000E+03   0.250432E-07   0.442980E-07   0.374667E+00   0.482931E+01
   0.110000E+03   0.337111E-07   0.591222E-07   0.374741E+00   0.482931E+01
   0.120000E+03   0.443989E-07   0.772060E-07   0.374809E+00   0.482931E+01
   0.130000E+03   0.573384E-07   0.988641E-07   0.374873E+00   0.482931E+01
   0.140000E+03   0.727476E-07   0.124378E-06   0.374932E+00   0.482931E+01
   0.150000E+03   0.908466E-07   0.154027E-06   0.374932E+00   0.482931E+01
   0.160000E+03   0.111792E-06   0.187970E-06   0.374988E+00   0.482931E+01
   0.170000E+03   0.135738E-06   0.226354E-06   0.375042E+00   0.482931E+01
   0.180000E+03   0.162809E-06   0.269282E-06   0.375094E+00   0.482931E+01
   0.190000E+03   0.193105E-06   0.316813E-06   0.375143E+00   0.482931E+01
   0.200000E+03   0.226695E-06   0.368956E-06   0.375189E+00   0.482931E+01
   0.210000E+03   0.263620E-06   0.425682E-06   0.375234E+00   0.482931E+01
   0.220000E+03   0.303893E-06   0.486920E-06   0.375276E+00   0.482931E+01
   0.230000E+03   0.347496E-06   0.552565E-06   0.375317E+00   0.482931E+01
   0.240000E+03   0.394387E-06   0.622477E-06   0.375356E+00   0.482931E+01
   0.250000E+03   0.444495E-06   0.696489E-06   0.375393E+00   0.482931E+01
   0.260000E+03   0.497725E-06   0.774407E-06   0.375428E+00   0.482931E+01
   0.270000E+03   0.553953E-06   0.856014E-06   0.375463E+00   0.482931E+01
   0.280000E+03   0.613033E-06   0.941077E-06   0.375496E+00   0.482931E+01
   0.290000E+03   0.674799E-06   0.102935E-05   0.375527E+00   0.482931E+01
   0.300000E+03   0.739060E-06   0.112056E-05   0.375558E+00   0.482931E+01
   0.310000E+03   0.805611E-06   0.121446E-05   0.375587E+00   0.482931E+01
   0.320000E+03   0.874235E-06   0.131076E-05   0.375614E+00   0.482931E+01
   0.330000E+03   0.944701E-06   0.140921E-05   0.375641E+00   0.482931E+01
   0.340000E+03   0.101677E-05   0.150954E-05   0.375666E+00   0.482931E+01
   0.350000E+03   0.109021E-05   0.161146E-05   0.375690E+00   0.482931E+01
   0.360000E+03   0.116477E-05   0.171474E-05   0.375712E+00   0.482931E+01
   0.370000E+03   0.124020E-05   0.181910E-05   0.375734E+00   0.482931E+01
   0.380000E+03   0.131627E-05   0.192431E-05   0.375755E+00   0.482931E+01
   0.390000E+03   0.139273E-05   0.203010E-05   0.375775E+00   0.482931E+01
   0.400000E+03   0.146935E-05   0.213625E-05   0.375794E+00   0.482931E+01
   0.410000E+03   0.154587E-05   0.224253E-05   0.375812E+00   0.482931E+01
   0.420000E+03   0.162207E-05   0.234870E-05   0.375829E+00   0.482931E+01
   0.430000E+03   0.169771E-05   0.245456E-05   0.375846E+00   0.482931E+01
   0.440000E+03   0.177256E-05   0.255990E-05   0.375861E+00   0.482931E+01
   0.450000E+03   0.184639E-05   0.266452E-05   0.375876E+00   0.482931E+01
   0.460000E+03   0.191896E-05   0.276823E-05   0.375891E+00   0.482931E+01
   0.470000E+03   0.199005E-05   0.287084E-05   0.375904E+00   0.482931E+01
   0.480000E+03   0.205943E-05   0.297221E-05   0.375917E+00   0.482931E+01
   0.490000E+03   0.212687E-05   0.307216E-05   0.375930E+00   0.482931E+01
   0.500000E+03   0.219216E-05   0.317054E-05   0.375942E+00   0.482931E+01
   0.510000E+03   0.225508E-05   0.327511E-05   0.375953E+00   0.482931E+01
   0.520000E+03   0.231541E-05   0.339015E-05   0.375963E+00   0.482931E+01
   0.530000E+03   0.237297E-05   0.350472E-05   0.375973E+00   0.482931E+01
   0.540000E+03   0.242756E-05   0.361875E-05   0.375983E+00   0.482931E+01
   0.550000E+03   0.247900E-05   0.373213E-05   0.375992E+00   0.482931E+01
   0.560000E+03   0.252712E-05   0.384478E-05   0.376000E+00   0.482931E+01
   0.570000E+03   0.257177E-05   0.395664E-05   0.376008E+00   0.482931E+01
   0.580000E+03   0.261280E-05   0.406763E-05   0.376015E+00   0.482931E+01
   0.590000E+03   0.265010E-05   0.417768E-05   0.376022E+00   0.482931E+01
   0.600000E+03   0.268355E-05   0.428674E-05   0.376029E+00   0.482931E+01
   0.610000E+03   0.271306E-05   0.439477E-05   0.376035E+00   0.482931E+01
   0.620000E+03   0.273857E-05   0.450171E-05   0.376041E+00   0.482931E+01
   0.630000E+03   0.276000E-05   0.460752E-05   0.376047E+00   0.482931E+01
   0.640000E+03   0.277733E-05   0.471218E-05   0.376052E+00   0.482931E+01
   0.650000E+03   0.279053E-05   0.481565E-05   0.376057E+00   0.482931E+01
   0.660000E+03   0.279959E-05   0.491791E-05   0.376062E+00   0.482931E+01
   0.670000E+03   0.280454E-05   0.501894E-05   0.376066E+00   0.482931E+01
   0.680000E+03   0.280540E-05   0.511872E-05   0.376070E+00   0.482931E+01
   0.690000E+03   0.280222E-05   0.521724E-05   0.376074E+00   0.482931E+01
   0.700000E+03   0.279505E-05   0.531450E-05   0.376077E+00   0.482931E+01
   0.710000E+03   0.278397E-05   0.541048E-05   0.376081E+00   0.482931E+01
   0.720000E+03   0.276906E-05   0.550520E-05   0.376083E+00   0.482931E+01
   0.730000E+03   0.275043E-05   0.559864E-05   0.376086E+00   0.482931E+01
   0.740000E+03   0.272818E-05   0.569081E-05   0.376088E+00   0.482931E+01
   0.750000E+03   0.270244E-05   0.578172E-05   0.376091E+00   0.482931E+01
   0.760000E+03   0.267332E-05   0.587138E-05   0.376092E+00   0.482931E+01
   0.770000E+03   0.264098E-05   0.595979E-05   0.376094E+00   0.482931E+01
   0.780000E+03   0.260556E-05   0.604697E-05   0.376095E+00   0.482931E+01
   0.790000E+03   0.256721E-05   0.613293E-05   0.376097E+00   0.482931E+01
   0.800000E+03   0.252610E-05   0.621768E-05   0.376098E+00   0.482931E+01
   0.810000E+03   0.248238E-05   0.630125E-05   0.376098E+00   0.482931E+01
   0.820000E+03   0.243624E-05   0.638365E-05   0.376099E+00   0.482931E+01
   0.830000E+03   0.238786E-05   0.646489E-05   0.376099E+00   0.482931E+01
   0.840000E+03   0.233740E-05   0.654500E-05   0.376100E+00   0.482931E+01
   0.850000E+03   0.228507E-05   0.662400E-05   0.376100E+00   0.482931E+01
   0.860000E+03   0.223105E-05   0.670191E-05   0.376100E+00   0.482931E+01
   0.870000E+03   0.217554E-05   0.677875E-05   0.376100E+00   0.482931E+01
   0.880000E+03   0.211873E-05   0.685455E-05   0.376099E+00   0.482931E+01
   0.890000E+03   0.206083E-05   0.692932E-05   0.376099E+00   0.482931E+01
   0.900000E+03   0.200202E-05   0.700309E-05   0.376098E+00   0.482931E+01
   0.910000E+03   0.194252E-05   0.707589E-05   0.376098E+00   0.482931E+01
   0.920000E+03   0.188253E-05   0.714774E-05   0.376097E+00   0.482931E+01
   0.930000E+03   0.182225E-05   0.721865E-05   0.376096E+00   0.482931E+01
   0.940000E+03   0.176189E-05   0.728867E-05   0.376095E+00   0.482931E+01
   0.950000E+03   0.170164E-05   0.735780E-05   0.376094E+00   0.482931E+01
   0.960000E+03   0.164171E-05   0.742608E-05   0.376093E+00   0.482931E+01
   0.970000E+03   0.158230E-05   0.749352E-05   0.376092E+00   0.482931E+01
   0.980000E+03   0.152360E-05   0.756015E-05   0.376091E+00   0.482931E+01
   0.990000E+03   0.146582E-05   0.762599E-05   0.376089E+00   0.482931E+01
   0.100000E+04   0.140914E-05   0.769107E-05   0.376088E+00   0.482931E+01
   0.101000E+04   0.135376E-05   0.775540E-05   0.376086E+00   0.482931E+01
   0.102000E+04   0.129986E-05   0.781900E-05   0.376085E+00   0.482931E+01
   0.103000E+04   0.124764E-05   0.788191E-05   0.376083E+00   0.482931E+01
   0.104000E+04   0.119726E-05   0.794413E-05   0.376081E+00   0.482931E+01
   0.105000E+04   0.114890E-05   0.800569E-05   0.376079E+00   0.482931E+01
   0.106000E+04   0.110275E-05   0.806662E-05   0.376077E+00   0.482931E+01
   0.107000E+04   0.105897E-05   0.812693E-05   0.376076E+00   0.482931E+01
   0.108000E+04   0.101772E-05   0.818664E-05   0.376074E+00   0.482931E+01
   0.109000E+04   0.979157E-06   0.824578E-05   0.376072E+00   0.482931E+01
   0.110000E+04   0.943441E-06   0.830436E-05   0.376070E+00   0.482931E+01
   0.111000E+04   0.910717E-06   0.836240E-05   0.376067E+00   0.482931E+01
   0.112000E+04   0.881126E-06   0.841993E-05   0.376065E+00   0.482931E+01
   0.113000E+04   0.854802E-06   0.847697E-05   0.376063E+00   0.482931E+01
   0.114000E+04   0.831876E-06   0.853353E-05   0.376061E+00   0.482931E+01
   0.115000E+04   0.812467E-06   0.858963E-05   0.376059E+00   0.482931E+01
   0.116000E+04   0.796688E-06   0.864530E-05   0.376057E+00   0.482931E+01
   0.117000E+04   0.784648E-06   0.870056E-05   0.376055E+00   0.482931E+01
   0.118000E+04   0.776443E-06   0.875542E-05   0.376052E+00   0.482931E+01
   0.119000E+04   0.772163E-06   0.880990E-05   0.376050E+00   0.482931E+01
   0.120000E+04   0.771892E-06   0.886403E-05   0.376048E+00   0.482931E+01
   0.121000E+04   0.775704E-06   0.891782E-05   0.376045E+00   0.482931E+01
   0.122000E+04   0.783664E-06   0.897128E-05   0.376043E+00   0.482931E+01
   0.123000E+04   0.795830E-06   0.902444E-05   0.376041E+00   0.482931E+01
   0.124000E+04   0.812253E-06   0.907732E-05   0.376038E+00   0.482931E+01
   0.125000E+04   0.832975E-06   0.912993E-05   0.376036E+00   0.482931E+01
   0.126000E+04   0.858031E-06   0.918229E-05   0.376034E+00   0.482931E+01
   0.127000E+04   0.887450E-06   0.923441E-05   0.376031E+00   0.482931E+01
   0.128000E+04   0.921254E-06   0.928632E-05   0.376029E+00   0.482931E+01
   0.129000E+04   0.959457E-06   0.933802E-05   0.376027E+00   0.482931E+01
   0.130000E+04   0.100207E-05   0.938953E-05   0.376024E+00   0.482931E+01
   0.131000E+04   0.104910E-05   0.944087E-05   0.376022E+00   0.482931E+01
   0.132000E+04   0.110054E-05   0.949204E-05   0.376019E+00   0.482931E+01
   0.133000E+04   0.115640E-05   0.954307E-05   0.376017E+00   0.482931E+01
   0.134000E+04   0.121667E-05   0.959396E-05   0.376014E+00   0.482931E+01
   0.135000E+04   0.128134E-05   0.964473E-05   0.376012E+00   0.482931E+01
   0.136000E+04   0.135039E-05   0.969538E-05   0.376009E+00   0.482931E+01
   0.137000E+04   0.142383E-05   0.974593E-05   0.376007E+00   0.482931E+01
   0.138000E+04   0.150163E-05   0.979639E-05   0.376004E+00   0.482931E+01
   0.139000E+04   0.158379E-05   0.984677E-05   0.376002E+00   0.482931E+01
   0.140000E+04   0.167029E-05   0.989707E-05   0.376000E+00   0.482931E+01
   0.141000E+04   0.176112E-05   0.994731E-05   0.375997E+00   0.482931E+01
   0.142000E+04   0.185628E-05   0.999749E-05   0.375995E+00   0.482931E+01
   0.143000E+04   0.195575E-05   0.100476E-04   0.375992E+00   0.482931E+01
   0.144000E+04   0.205952E-05   0.100977E-04   0.375990E+00   0.482931E+01
   0.145000E+04   0.216760E-05   0.101478E-04   0.375987E+00   0.482931E+01
   0.146000E+04   0.227997E-05   0.101978E-04   0.375985E+00   0.482931E+01
   0.147000E+04   0.239664E-05   0.102478E-04   0.375982E+00   0.482931E+01
   0.148000E+04   0.251760E-05   0.102978E-04   0.375980E+00   0.482931E+01
   0.149000E+04   0.264287E-05   0.103477E-04   0.375977E+00   0.482931E+01
   0.150000E+04   0.277243E-05   0.103977E-04   0.375975E+00   0.482931E+01
   0.151000E+04   0.290631E-05   0.104477E-04   0.375972E+00   0.482931E+01
   0.152000E+04   0.304450E-05   0.104977E-04   0.375970E+00   0.482931E+01
   0.153000E+04   0.318702E-05   0.105477E-04   0.375967E+00   0.482931E+01
   0.154000E+04   0.333387E-05   0.105977E-04   0.375965E+00   0.482931E+01
   0.155000E+04   0.348506E-05   0.106477E-04   0.375962E+00   0.482931E+01
   0.156000E+04   0.364061E-05   0.106977E-04   0.375960E+00   0.482931E+01
   0.157000E+04   0.380053E-05   0.107478E-04   0.375957E+00   0.482931E+01
   0.158000E+04   0.396481E-05   0.107979E-04   0.375955E+00   0.482931E+01
   0.159000E+04   0.413347E-05   0.108481E-04   0.375952E+00   0.482931E+01
   0.160000E+04   0.430651E-05   0.108983E-04   0.375950E+00   0.482931E+01
   0.161000E+04   0.448393E-05   0.109485E-04   0.375947E+00   0.482931E+01
   0.162000E+04   0.466573E-05   0.109988E-04   0.375945E+00   0.482931E+01
   0.163000E+04   0.485191E-05   0.110491E-04   0.375942E+00   0.482931E+01
   0.164000E+04   0.504244E-05   0.110995E-04   0.375940E+00   0.482931E+01
   0.165000E+04   0.523733E-05   0.111500E-04   0.375938E+00   0.482931E+01
   0.166000E+04   0.543654E-05   0.112005E-04   0.375935E+00   0.482931E+01
   0.167000E+04   0.564005E-05   0.112511E-04   0.375933E+00   0.482931E+01
   0.168000E+04   0.584783E-05   0.113018E-04   0.375931E+00   0.482931E+01
   0.169000E+04   0.605985E-05   0.113526E-04   0.375928E+00   0.482931E+01
   0.170000E+04   0.627605E-05   0.114034E-04   0.375926E+00   0.482931E+01
   0.171000E+04   0.649639E-05   0.114544E-04   0.375924E+00   0.482931E+01
   0.172000E+04   0.672082E-05   0.115054E-04   0.375921E+00   0.482931E+01
   0.173000E+04   0.694928E-05   0.115565E-04   0.375919E+00   0.482931E+01
   0.174000E+04   0.718169E-05   0.116077E-04   0.375917E+00   0.482931E+01
   0.175000E+04   0.741801E-05   0.116591E-04   0.375915E+00   0.482931E+01
   0.176000E+04   0.765814E-05   0.117105E-04   0.375912E+00   0.482931E+01
   0.177000E+04   0.790201E-05   0.117620E-04   0.375910E+00   0.482931E+01
   0.178000E+04   0.814955E-05   0.118137E-04   0.375908E+00   0.482931E+01
   0.179000E+04   0.840066E-05   0.118654E-04   0.375906E+00   0.482931E+01
   0.180000E+04   0.865526E-05   0.119173E-04   0.375904E+00   0.482931E+01
   0.181000E+04   0.891326E-05   0.124076E-04   0.375902E+00   0.482931E+01
   0.182000E+04   0.917457E-05   0.130077E-04   0.375900E+00   0.482931E+01
   0.183000E+04   0.943910E-05   0.136164E-04   0.375897E+00   0.482931E+01
   0.184000E+04   0.970675E-05   0.142333E-04   0.375895E+00   0.482931E+01
   0.185000E+04   0.997744E-05   0.148582E-04   0.375893E+00   0.482931E+01
   0.186000E+04   0.102511E-04   0.154909E-04   0.375891E+00   0.482931E+01
   0.187000E+04   0.105276E-04   0.161311E-04   0.375889E+00   0.482931E+01
   0.188000E+04   0.108068E-04   0.167784E-04   0.375887E+00   0.482931E+01
   0.189000E+04   0.110887E-04   0.174327E-04   0.375885E+00   0.482931E+01
   0.190000E+04   0.113732E-04   0.180937E-04   0.375883E+00   0.482931E+01
   0.191000E+04   0.116602E-04   0.187612E-04   0.375881E+00   0.482931E+01
   0.192000E+04   0.119496E-04   0.194348E-04   0.375879E+00   0.482931E+01
   0.193000E+04   0.122413E-04   0.201144E-04   0.375877E+00   0.482931E+01
   0.194000E+04   0.125353E-04   0.207997E-04   0.375875E+00   0.482931E+01
   0.195000E+04   0.128314E-04   0.214905E-04   0.375873E+00   0.482931E+01
   0.196000E+04   0.131296E-04   0.221865E-04   0.375871E+00   0.482931E+01
   0.197000E+04   0.134298E-04   0.228876E-04   0.375869E+00   0.482931E+01
   0.198000E+04   0.137320E-04   0.235935E-04   0.375867E+00   0.482931E+01
   0.199000E+04   0.140360E-04   0.243041E-04   0.375865E+00   0.482931E+01
   0.200000E+04   0.143418E-04   0.250191E-04   0.375863E+00   0.482931E+01
   0.201000E+04   0.146493E-04   0.257383E-04   0.375861E+00   0.482931E+01
   0.202000E+04   0.149585E-04   0.264616E-04   0.375859E+00   0.482931E+01
   0.203000E+04   0.152693E-04   0.271888E-04   0.375857E+00   0.482931E+01
   0.204000E+04   0.155816E-04   0.279198E-04   0.375855E+00   0.482931E+01
   0.205000E+04   0.158954E-04   0.286543E-04   0.375853E+00   0.482931E+01
   0.206000E+04   0.162106E-04   0.293923E-04   0.375851E+00   0.482931E+01
   0.207000E+04   0.165272E-04   0.301336E-04   0.375849E+00   0.482931E+01
   0.208000E+04   0.168452E-04   0.308780E-04   0.375847E+00   0.482931E+01
   0.209000E+04   0.171643E-04   0.316255E-04   0.375845E+00   0.482931E+01
   0.210000E+04   0.174848E-04   0.323759E-04   0.375843E+00   0.482931E+01
   0.211000E+04   0.178064E-04   0.331291E-04   0.375841E+00   0.482931E+01
   0.212000E+04   0.181291E-04   0.338851E-04   0.375839E+00   0.482931E+01
   0.213000E+04   0.184530E-04   0.346437E-04   0.375837E+00   0.482931E+01
   0.214000E+04   0.187779E-04   0.354048E-04   0.375835E+00   0.482931E+01
   0.215000E+04   0.191039E-04   0.361685E-04   0.375833E+00   0.482931E+01
   0.216000E+04   0.194309E-04   0.369345E-04   0.375831E+00   0.482931E+01
   0.217000E+04   0.197589E-04   0.377029E-04   0.375829E+00   0.482931E+01
   0.218000E+04   0.200878E-04   0.384735E-04   0.375827E+00   0.482931E+01
   0.219000E+04   0.204176E-04   0.392464E-04   0.375825E+00   0.482931E+01
   0.220000E+04   0.207484E-04   0.400215E-04   0.375824E+00   0.482931E+01
   0.221000E+04   0.210801E-04   0.407988E-04   0.375822E+00   0.482931E+01
   0.222000E+04   0.214126E-04   0.415782E-04   0.375820E+00   0.482931E+01
   0.223000E+04   0.217459E-04   0.423596E-04   0.375818E+00   0.482931E+01
   0.224000E+04   0.220801E-04   0.431432E-04   0.375816E+00   0.482931E+01
   0.225000E+04   0.224152E-04   0.439288E-04   0.375814E+00   0.482931E+01
   0.226000E+04   0.227510E-04   0.447164E-04   0.375812E+00   0.482931E+01
   0.227000E+04   0.230877E-04   0.455061E-04   0.375810E+00   0.482931E+01
   0.228000E+04   0.234251E-04   0.462978E-04   0.375808E+00   0.482931E+01
   0.229000E+04   0.237633E-04   0.470915E-04   0.375806E+00   0.482931E+01
   0.230000E+04   0.241023E-04   0.478873E-04   0.375805E+00   0.482931E+01
   0.231000E+04   0.244421E-04   0.486851E-04   0.375803E+00   0.482931E+01
   0.232000E+04   0.247826E-04   0.494849E-04   0.375801E+00   0.482931E+01
   0.233000E+04   0.251239E-04   0.502868E-04   0.375799E+00   0.482931E+01
   0.234000E+04   0.254659E-04   0.510908E-04   0.375797E+00   0.482931E+01
   0.235000E+04   0.258087E-04   0.518968E-04   0.375795E+00   0.482931E+01
   0.236000E+04   0.261522E-04   0.527049E-04   0.375793E+00   0.482931E+01
   0.237000E+04   0.264965E-04   0.535151E-04   0.375792E+00   0.482931E+01
   0.238000E+04   0.268415E-04   0.543274E-04   0.375790E+00   0.482931E+01
   0.239000E+04   0.271872E-04   0.551418E-04   0.375788E+00   0.482931E+01
   0.240000E+04   0.275336E-04   0.559582E-04   0.375786E+00   0.482931E+01
   0.241000E+04   0.278807E-04   0.567768E-04   0.375784E+00   0.482931E+01
   0.242000E+04   0.282284E-04   0.575975E-04   0.375783E+00   0.482931E+01
   0.243000E+04   0.285768E-04   0.584202E-04   0.375781E+00   0.482931E+01
   0.244000E+04   0.289259E-04   0.592450E-04   0.375779E+00   0.482931E+01
   0.245000E+04   0.292755E-04   0.600718E-04   0.375777E+00   0.482931E+01
   0.246000E+04   0.296257E-04   0.609006E-04   0.375776E+00   0.482931E+01
   0.247000E+04   0.299765E-04   0.617313E-04   0.375774E+00   0.482931E+01
   0.248000E+04   0.303278E-04   0.625640E-04   0.375772E+00   0.482931E+01
   0.249000E+04   0.306796E-04   0.633984E-04   0.375771E+00   0.482931E+01
   0.250000E+04   0.310318E-04   0.642347E-04   0.375769E+00   0.482931E+01
   0.251000E+04   0.313845E-04   0.650726E-04   0.375767E+00   0.482931E+01
   0.252000E+04   0.317376E-04   0.659121E-04   0.375766E+00   0.482931E+01
   0.253000E+04   0.320910E-04   0.667531E-04   0.375764E+00   0.482931E+01
   0.254000E+04   0.324447E-04   0.675956E-04   0.375762E+00   0.482931E+01
   0.255000E+04   0.327987E-04   0.684393E-04   0.375761E+00   0.482931E+01
   0.256000E+04   0.331529E-04   0.692843E-04   0.375759E+00   0.482931E+01
   0.257000E+04   0.335073E-04   0.701304E-04   0.375758E+00   0.482931E+01
   0.258000E+04   0.338619E-04   0.709775E-04   0.375756E+00   0.482931E+01
   0.259000E+04   0.342166E-04   0.718254E-04   0.375754E+00   0.482931E+01
   0.260000E+04   0.345714E-04   0.726741E-04   0.375753E+00   0.482931E+01
   0.261000E+04   0.349262E-04   0.735234E-04   0.375751E+00   0.482931E+01
   0.262000E+04   0.352810E-04   0.743733E-04   0.375750E+00   0.482931E+01
   0.263000E+04   0.356358E-04   0.752236E-04   0.375748E+00   0.482931E+01
   0.264000E+04   0.359906E-04   0.760741E-04   0.375747E+00   0.482931E+01
   0.265000E+04   0.363452E-04   0.769248E-04   0.375745E+00   0.482931E+01
   0.266000E+04   0.366996E-04   0.777755E-04   0.375744E+00   0.482931E+01
   0.267000E+04   0.370539E-04   0.786262E-04   0.375742E+00   0.482931E+01
   0.268000E+04   0.374080E-04   0.794766E-04   0.375741E+00   0.482931E+01
   0.269000E+04   0.377618E-04   0.803268E-04   0.375739E+00   0.482931E+01
   0.270000E+04   0.381153E-04   0.811765E-04   0.375738E+00   0.482931E+01
   0.271000E+04   0.384684E-04   0.820257E-04   0.375736E+00   0.482931E+01
   0.272000E+04   0.388212E-04   0.828742E-04   0.375735E+00   0.482931E+01
   0.273000E+04   0.391736E-04   0.837219E-04   0.375733E+00   0.482931E+01
   0.274000E+04   0.395255E-04   0.845688E-04   0.375732E+00   0.482931E+01
   0.275000E+04   0.398770E-04   0.854147E-04   0.375730E+00   0.482931E+01
   0.276000E+04   0.402280E-04   0.862596E-04   0.375729E+00   0.482931E+01
   0.277000E+04   0.405784E-04   0.871032E-04   0.375727E+00   0.482931E+01
   0.278000E+04   0.409283E-04   0.879456E-04   0.375726E+00   0.482931E+01
   0.279000E+04   0.412775E-04   0.887866E-04   0.375724E+00   0.482931E+01
   0.280000E+04   0.416262E-04   0.896262E-04   0.375723E+00   0.482931E+01
   0.281000E+04   0.419741E-04   0.904642E-04   0.375721E+00   0.482931E+01
   0.282000E+04   0.423214E-04   0.913005E-04   0.375720E+00   0.482931E+01
   0.283000E+04   0.426680E-04   0.921352E-04   0.375718E+00   0.482931E+01
   0.284000E+04   0.430138E-04   0.929681E-04   0.375717E+00   0.482931E+01
   0.285000E+04   0.433589E-04   0.937991E-04   0.375715E+00   0.482931E+01
   0.286000E+04   0.437032E-04   0.946282E-04   0.375714E+00   0.482931E+01
   0.287000E+04   0.440468E-04   0.954553E-04   0.375713E+00   0.482931E+01
   0.288000E+04   0.443895E-04   0.962804E-04   0.375711E+00   0.482931E+01
   0.289000E+04   0.447314E-04   0.971033E-04   0.375710E+00   0.482931E+01
   0.290000E+04   0.450724E-04   0.979241E-04   0.375708E+00   0.482931E+01
   0.291000E+04   0.454126E-04   0.987428E-04   0.375707E+00   0.482931E+01
   0.292000E+04   0.457520E-04   0.995592E-04   0.375705E+00   0.482931E+01
   0.293000E+04   0.460904E-04   0.100373E-03   0.375704E+00   0.482931E+01
   0.294000E+04   0.464280E-04   0.101185E-03   0.375703E+00   0.482931E+01
   0.295000E+04   0.467648E-04   0.101995E-03   0.375701E+00   0.482931E+01
   0.296000E+04   0.471006E-04   0.102802E-03   0.375700E+00   0.482931E+01
   0.297000E+04   0.474356E-04   0.103607E-03   0.375698E+00   0.482931E+01
   0.298000E+04   0.477698E-04   0.104410E-03   0.375697E+00   0.482931E+01
   0.299000E+04   0.481030E-04   0.105210E-03   0.375695E+00   0.482931E+01
   0.300000E+04   0.484355E-04   0.106008E-03   0.375694E+00   0.482931E+01
   0.301000E+04   0.487671E-04   0.106804E-03   0.375693E+00   0.482931E+01
   0.302000E+04   0.490978E-04   0.107598E-03   0.375691E+00   0.482931E+01
   0.303000E+04   0.494278E-04   0.108389E-03   0.375690E+00   0.482931E+01
   0.304000E+04   0.497569E-04   0.109178E-03   0.375688E+00   0.482931E+01
   0.305000E+04   0.500853E-04   0.109965E-03   0.375687E+00   0.482931E+01
   0.306000E+04   0.504129E-04   0.110751E-03   0.375686E+00   0.482931E+01
   0.307000E+04   0.507399E-04   0.111534E-03   0.375684E+00   0.482931E+01
   0.308000E+04   0.510661E-04   0.112315E-03   0.375683E+00   0.482931E+01
   0.309000E+04   0.513916E-04   0.113095E-03   0.375682E+00   0.482931E+01
   0.310000E+04   0.517165E-04   0.113872E-03   0.375680E+00   0.482931E+01
   0.311000E+04   0.520407E-04   0.114649E-03   0.375679E+00   0.482931E+01
   0.312000E+04   0.523644E-04   0.115423E-03   0.375677E+00   0.482931E+01
   0.313000E+04   0.526875E-04   0.116196E-03   0.375676E+00   0.482931E+01
   0.314000E+04   0.530101E-04   0.116968E-03   0.375675E+00   0.482931E+01
   0.315000E+04   0.533323E-04   0.117739E-03   0.375673E+00   0.482931E+01
   0.316000E+04   0.536539E-04   0.118508E-03   0.375672E+00   0.482931E+01
   0.317000E+04   0.539751E-04   0.119277E-03   0.375671E+00   0.482931E+01
   0.318000E+04   0.542959E-04   0.120044E-03   0.375669E+00   0.482931E+01
   0.319000E+04   0.546163E-04   0.120811E-03   0.375668E+00   0.482931E+01
   0.320000E+04   0.549364E-04   0.121577E-03   0.375667E+00   0.482931E+01
   0.321000E+04   0.552562E-04   0.122343E-03   0.375665E+00   0.482931E+01
   0.322000E+04   0.555757E-04   0.123108E-03   0.375664E+00   0.482931E+01
   0.323000E+04   0.558949E-04   0.123872E-03   0.375663E+00   0.482931E+01
   0.324000E+04   0.562138E-04   0.124636E-03   0.375661E+00   0.482931E+01
   0.325000E+04   0.565326E-04   0.125400E-03   0.375660E+00   0.482931E+01
   0.326000E+04   0.568511E-04   0.126164E-03   0.375659E+00   0.482931E+01
   0.327000E+04   0.571694E-04   0.126927E-03   0.375657E+00   0.482931E+01
   0.328000E+04   0.574875E-04   0.127691E-03   0.375656E+00   0.482931E+01
   0.329000E+04   0.578055E-04   0.128455E-03   0.375655E+00   0.482931E+01
   0.330000E+04   0.581233E-04   0.129218E-03   0.375654E+00   0.482931E+01
   0.331000E+04   0.584410E-04   0.129982E-03   0.375652E+00   0.482931E+01
   0.332000E+04   0.587586E-04   0.130746E-03   0.375651E+00   0.482931E+01
   0.333000E+04   0.590760E-04   0.131510E-03   0.375650E+00   0.482931E+01
   0.334000E+04   0.593932E-04   0.132274E-03   0.375649E+00   0.482931E+01
   0.335000E+04   0.597104E-04   0.133038E-03   0.375647E+00   0.482931E+01
   0.336000E+04   0.600274E-04   0.133803E-03   0.375646E+00   0.482931E+01
   0.337000E+04   0.603443E-04   0.134568E-03   0.375645E+00   0.482931E+01
   0.338000E+04   0.606611E-04   0.135333E-03   0.375644E+00   0.482931E+01
   0.339000E+04   0.609777E-04   0.136098E-03   0.375642E+00   0.482931E+01
   0.340000E+04   0.612942E-04   0.136864E-03   0.375641E+00   0.482931E+01
   0.341000E+04   0.616105E-04   0.137630E-03   0.375640E+00   0.482931E+01
   0.342000E+04   0.619267E-04   0.138396E-03   0.375639E+00   0.482931E+01
   0.343000E+04   0.622427E-04   0.139162E-03   0.375638E+00   0.482931E+01
   0.344000E+04   0.625586E-04   0.139929E-03   0.375636E+00   0.482931E+01
   0.345000E+04   0.628743E-04   0.140695E-03   0.375635E+00   0.482931E+01
   0.346000E+04   0.631898E-04   0.141462E-03   0.375634E+00   0.482931E+01
   0.347000E+04   0.635051E-04   0.142229E-03   0.375633E+00   0.482931E+01
   0.348000E+04   0.638202E-04   0.142996E-03   0.375632E+00   0.482931E+01
   0.349000E+04   0.641350E-04   0.143763E-03   0.375631E+00   0.482931E+01
   0.350000E+04   0.644497E-04   0.144530E-03   0.375629E+00   0.482931E+01
   0.351000E+04   0.647641E-04   0.145297E-03   0.375628E+00   0.482931E+01
   0.352000E+04   0.650782E-04   0.146063E-03   0.375627E+00   0.482931E+01
   0.353000E+04   0.653920E-04   0.146830E-03   0.375626E+00   0.482931E+01
   0.354000E+04   0.657056E-04   0.147597E-03   0.375625E+00   0.482931E+01
   0.355000E+04   0.660188E-04   0.148363E-03   0.375624E+00   0.482931E+01
   0.356000E+04   0.663317E-04   0.149129E-03   0.375623E+00   0.482931E+01
   0.357000E+04   0.666443E-04   0.149895E-03   0.375621E+00   0.482931E+01
   0.358000E+04   0.669566E-04   0.150660E-03   0.375620E+00   0.482931E+01
   0.359000E+04   0.672685E-04   0.151425E-03   0.375619E+00   0.482931E+01
   0.360000E+04   0.675800E-04   0.152190E-03   0.375618E+00   0.482931E+01
   0.361000E+04   0.678911E-04   0.152954E-03   0.375617E+00   0.482931E+01
   0.362000E+04   0.682018E-04   0.153717E-03   0.375616E+00   0.482931E+01
   0.363000E+04   0.685121E-04   0.154480E-03   0.375615E+00   0.482931E+01
   0.364000E+04   0.688220E-04   0.155243E-03   0.375614E+00   0.482931E+01
   0.365000E+04   0.691314E-04   0.156004E-03   0.375613E+00   0.482931E+01
   0.366000E+04   0.694404E-04   0.156765E-03   0.375612E+00   0.482931E+01
   0.367000E+04   0.697488E-04   0.157526E-03   0.375611E+00   0.482931E+01
   0.368000E+04   0.700568E-04   0.158285E-03   0.375610E+00   0.482931E+01
   0.369000E+04   0.703643E-04   0.159044E-03   0.375609E+00   0.482931E+01
   0.370000E+04   0.706713E-04   0.159801E-03   0.375607E+00   0.482931E+01
   0.371000E+04   0.709777E-04   0.160558E-03   0.375606E+00   0.482931E+01
   0.372000E+04   0.712836E-04   0.161314E-03   0.375605E+00   0.482931E+01
   0.373000E+04   0.715889E-04   0.162069E-03   0.375604E+00   0.482931E+01
   0.374000E+04   0.718936E-04   0.162822E-03   0.375603E+00   0.482931E+01
   0.375000E+04   0.721978E-04   0.163575E-03   0.375602E+00   0.482931E+01
   0.376000E+04   0.725013E-04   0.164326E-03   0.375601E+00   0.482931E+01
   0.377000E+04   0.728043E-04   0.165077E-03   0.375600E+00   0.482931E+01
   0.378000E+04   0.731066E-04   0.165826E-03   0.375599E+00   0.482931E+01
   0.379000E+04   0.734082E-04   0.166573E-03   0.375598E+00   0.482931E+01
   0.380000E+04   0.737092E-04   0.167320E-03   0.375597E+00   0.482931E+01
   0.381000E+04   0.740095E-04   0.168065E-03   0.375596E+00   0.482931E+01
   0.382000E+04   0.743091E-04   0.168808E-03   0.375595E+00   0.482931E+01
   0.383000E+04   0.746081E-04   0.169550E-03   0.375594E+00   0.482931E+01
   0.384000E+04   0.749063E-04   0.170291E-03   0.375593E+00   0.482931E+01
   0.385000E+04   0.752038E-04   0.171030E-03   0.375592E+00   0.482931E+01
   0.386000E+04   0.755005E-04   0.171767E-03   0.375591E+00   0.482931E+01
   0.387000E+04   0.757965E-04   0.172503E-03   0.375591E+00   0.482931E+01
   0.388000E+04   0.760918E-04   0.173237E-03   0.375590E+00   0.482931E+01
   0.389000E+04   0.763863E-04   0.173969E-03   0.375589E+00   0.482931E+01
   0.390000E+04   0.766799E-04   0.174700E-03   0.375588E+00   0.482931E+01
   0.391000E+04   0.769728E-04   0.175429E-03   0.375587E+00   0.482931E+01
   0.392000E+04   0.772649E-04   0.176156E-03   0.375586E+00   0.482931E+01
   0.393000E+04   0.775561E-04   0.176881E-03   0.375585E+00   0.482931E+01