title="breakthrough data set at     5 wells"
variables="time(days)","cavg","cpk","upk","zswi"
zone i=     1295
   0.100000E+02   0.760290E-10   0.105166E-09   0.458238E+00   0.485080E+01
   0.200000E+02   0.193564E-09   0.261392E-09   0.378482E+00   0.482970E+01
   0.300000E+02   0.420062E-09   0.557654E-09   0.378294E+00   0.482970E+01
   0.400000E+02   0.824223E-09   0.108485E-08   0.378428E+00   0.482970E+01
   0.500000E+02   0.150102E-08   0.197496E-08   0.378558E+00   0.482970E+01
   0.600000E+02   0.257633E-08   0.338693E-08   0.378679E+00   0.482970E+01
   0.700000E+02   0.421013E-08   0.552757E-08   0.378793E+00   0.482970E+01
   0.800000E+02   0.659818E-08   0.864805E-08   0.378898E+00   0.482970E+01
   0.900000E+02   0.997194E-08   0.130429E-07   0.378998E+00   0.482970E+01
   0.100000E+03   0.145967E-07   0.190464E-07   0.379092E+00   0.482970E+01
   0.110000E+03   0.207681E-07   0.270274E-07   0.379183E+00   0.482970E+01
   0.120000E+03   0.288072E-07   0.373821E-07   0.379270E+00   0.482970E+01
   0.130000E+03   0.390546E-07   0.505252E-07   0.379353E+00   0.482970E+01
   0.140000E+03   0.518632E-07   0.668805E-07   0.379433E+00   0.482970E+01
   0.150000E+03   0.676081E-07   0.868940E-07   0.379432E+00   0.482970E+01
   0.160000E+03   0.866398E-07   0.110972E-06   0.379511E+00   0.482970E+01
   0.170000E+03   0.109308E-06   0.139514E-06   0.379587E+00   0.482970E+01
   0.180000E+03   0.135912E-06   0.172849E-06   0.379734E+00   0.482970E+01
   0.190000E+03   0.166806E-06   0.211372E-06   0.379734E+00   0.482970E+01
   0.200000E+03   0.202242E-06   0.255340E-06   0.379804E+00   0.482970E+01
   0.210000E+03   0.242456E-06   0.304988E-06   0.379873E+00   0.482970E+01
   0.220000E+03   0.287640E-06   0.360491E-06   0.379939E+00   0.482970E+01
   0.230000E+03   0.337935E-06   0.421960E-06   0.380005E+00   0.482970E+01
   0.240000E+03   0.393428E-06   0.489435E-06   0.380069E+00   0.482970E+01
   0.250000E+03   0.454149E-06   0.562887E-06   0.380131E+00   0.482970E+01
   0.260000E+03   0.520067E-06   0.642214E-06   0.380192E+00   0.482970E+01
   0.270000E+03   0.591093E-06   0.727240E-06   0.380252E+00   0.482970E+01
   0.280000E+03   0.667077E-06   0.817720E-06   0.380310E+00   0.482970E+01
   0.290000E+03   0.747812E-06   0.913334E-06   0.380366E+00   0.482970E+01
   0.300000E+03   0.833031E-06   0.101369E-05   0.380421E+00   0.482970E+01
   0.310000E+03   0.922407E-06   0.111833E-05   0.380476E+00   0.482970E+01
   0.320000E+03   0.101555E-05   0.122670E-05   0.380529E+00   0.482970E+01
   0.330000E+03   0.111202E-05   0.133821E-05   0.380581E+00   0.482970E+01
   0.340000E+03   0.121129E-05   0.145216E-05   0.380632E+00   0.482970E+01
   0.350000E+03   0.131279E-05   0.156782E-05   0.380683E+00   0.482970E+01
   0.360000E+03   0.141590E-05   0.168440E-05   0.380734E+00   0.482970E+01
   0.370000E+03   0.151995E-05   0.180107E-05   0.380783E+00   0.482970E+01
   0.380000E+03   0.162424E-05   0.191700E-05   0.380832E+00   0.482970E+01
   0.390000E+03   0.172805E-05   0.203133E-05   0.380880E+00   0.482970E+01
   0.400000E+03   0.183065E-05   0.214320E-05   0.380927E+00   0.482970E+01
   0.410000E+03   0.193130E-05   0.225177E-05   0.380972E+00   0.482970E+01
   0.420000E+03   0.202924E-05   0.235623E-05   0.381017E+00   0.482970E+01
   0.430000E+03   0.212376E-05   0.245577E-05   0.381061E+00   0.482970E+01
   0.440000E+03   0.221414E-05   0.254964E-05   0.381104E+00   0.482970E+01
   0.450000E+03   0.229968E-05   0.263714E-05   0.381146E+00   0.482970E+01
   0.460000E+03   0.237972E-05   0.271762E-05   0.381187E+00   0.482970E+01
   0.470000E+03   0.245363E-05   0.280553E-05   0.381226E+00   0.482970E+01
   0.480000E+03   0.252081E-05   0.290219E-05   0.381265E+00   0.482970E+01
   0.490000E+03   0.258071E-05   0.299449E-05   0.381302E+00   0.482970E+01
   0.500000E+03   0.263284E-05   0.308218E-05   0.381339E+00   0.482970E+01
   0.510000E+03   0.267678E-05   0.316506E-05   0.381375E+00   0.482970E+01
   0.520000E+03   0.271215E-05   0.324298E-05   0.381410E+00   0.482970E+01
   0.530000E+03   0.273868E-05   0.331587E-05   0.381445E+00   0.482970E+01
   0.540000E+03   0.275616E-05   0.338370E-05   0.381480E+00   0.482970E+01
   0.550000E+03   0.276447E-05   0.344649E-05   0.381515E+00   0.482970E+01
   0.560000E+03   0.276356E-05   0.350431E-05   0.381549E+00   0.482970E+01
   0.570000E+03   0.275346E-05   0.355728E-05   0.381582E+00   0.482970E+01
   0.580000E+03   0.273427E-05   0.360554E-05   0.381614E+00   0.482970E+01
   0.590000E+03   0.270615E-05   0.364928E-05   0.381646E+00   0.482970E+01
   0.600000E+03   0.266930E-05   0.368869E-05   0.381676E+00   0.482970E+01
   0.610000E+03   0.262399E-05   0.372401E-05   0.381706E+00   0.482970E+01
   0.620000E+03   0.257055E-05   0.375545E-05   0.381735E+00   0.482970E+01
   0.630000E+03   0.250930E-05   0.378328E-05   0.381763E+00   0.482970E+01
   0.640000E+03   0.244066E-05   0.380776E-05   0.381791E+00   0.482970E+01
   0.650000E+03   0.236503E-05   0.382914E-05   0.381818E+00   0.482970E+01
   0.660000E+03   0.228289E-05   0.384770E-05   0.381844E+00   0.482970E+01
   0.670000E+03   0.219470E-05   0.386370E-05   0.381870E+00   0.482970E+01
   0.680000E+03   0.210096E-05   0.387739E-05   0.381896E+00   0.482970E+01
   0.690000E+03   0.200215E-05   0.388903E-05   0.381921E+00   0.482970E+01
   0.700000E+03   0.189873E-05   0.389882E-05   0.381946E+00   0.482970E+01
   0.710000E+03   0.179112E-05   0.390696E-05   0.381970E+00   0.482970E+01
   0.720000E+03   0.167969E-05   0.391363E-05   0.381994E+00   0.482970E+01
   0.730000E+03   0.156477E-05   0.396911E-05   0.382017E+00   0.482970E+01
   0.740000E+03   0.144663E-05   0.403221E-05   0.382040E+00   0.482970E+01
   0.750000E+03   0.132549E-05   0.409498E-05   0.382061E+00   0.482970E+01
   0.760000E+03   0.120153E-05   0.415749E-05   0.382083E+00   0.482970E+01
   0.770000E+03   0.107487E-05   0.421978E-05   0.382104E+00   0.482970E+01
   0.780000E+03   0.945626E-06   0.428193E-05   0.382124E+00   0.482970E+01
   0.790000E+03   0.813844E-06   0.434399E-05   0.382144E+00   0.482970E+01
   0.800000E+03   0.679568E-06   0.440602E-05   0.382163E+00   0.482970E+01
   0.810000E+03   0.542823E-06   0.446807E-05   0.382182E+00   0.482970E+01
   0.820000E+03   0.403625E-06   0.453019E-05   0.382200E+00   0.482970E+01
   0.830000E+03   0.261991E-06   0.459244E-05   0.382218E+00   0.482970E+01
   0.840000E+03   0.117940E-06   0.465488E-05   0.382236E+00   0.482970E+01
   0.850000E+03  -0.284919E-07   0.471754E-05   0.382253E+00   0.482970E+01
   0.860000E+03  -0.177255E-06   0.478049E-05   0.382270E+00   0.482970E+01
   0.870000E+03  -0.328276E-06   0.484378E-05   0.382286E+00   0.482970E+01
   0.880000E+03  -0.481457E-06   0.490746E-05   0.382302E+00   0.482970E+01
   0.890000E+03  -0.636676E-06   0.497157E-05   0.382318E+00   0.482970E+01
   0.900000E+03  -0.793787E-06   0.503619E-05   0.382334E+00   0.482970E+01
   0.910000E+03  -0.952632E-06   0.510134E-05   0.382349E+00   0.482970E+01
   0.920000E+03  -0.111304E-05   0.516709E-05   0.382364E+00   0.482970E+01
   0.930000E+03  -0.127486E-05   0.523348E-05   0.382379E+00   0.482970E+01
   0.940000E+03  -0.143793E-05   0.530056E-05   0.382394E+00   0.482970E+01
   0.950000E+03  -0.160212E-05   0.536836E-05   0.382409E+00   0.482970E+01
   0.960000E+03  -0.176731E-05   0.543694E-05   0.382423E+00   0.482970E+01
   0.970000E+03  -0.193338E-05   0.550634E-05   0.382438E+00   0.482970E+01
   0.980000E+03  -0.210021E-05   0.557658E-05   0.382452E+00   0.482970E+01
   0.990000E+03  -0.226769E-05   0.564772E-05   0.382465E+00   0.482970E+01
   0.100000E+04  -0.243569E-05   0.571976E-05   0.382478E+00   0.482970E+01
   0.101000E+04  -0.260405E-05   0.579274E-05   0.382491E+00   0.482970E+01
   0.102000E+04  -0.277257E-05   0.586668E-05   0.382504E+00   0.482970E+01
   0.103000E+04  -0.294102E-05   0.594159E-05   0.382516E+00   0.482970E+01
   0.104000E+04  -0.310915E-05   0.601747E-05   0.382529E+00   0.482970E+01
   0.105000E+04  -0.327668E-05   0.609435E-05   0.382541E+00   0.482970E+01
   0.106000E+04  -0.344327E-05   0.617223E-05   0.382553E+00   0.482970E+01
   0.107000E+04  -0.360859E-05   0.625112E-05   0.382566E+00   0.482970E+01
   0.108000E+04  -0.377226E-05   0.633103E-05   0.382578E+00   0.482970E+01
   0.109000E+04  -0.393393E-05   0.641196E-05   0.382590E+00   0.482970E+01
   0.110000E+04  -0.409320E-05   0.649392E-05   0.382602E+00   0.482970E+01
   0.111000E+04  -0.424969E-05   0.657691E-05   0.382614E+00   0.482970E+01
   0.112000E+04  -0.440300E-05   0.666096E-05   0.382626E+00   0.482970E+01
   0.113000E+04  -0.455271E-05   0.674605E-05   0.382638E+00   0.482970E+01
   0.114000E+04  -0.469843E-05   0.683222E-05   0.382650E+00   0.482970E+01
   0.115000E+04  -0.483976E-05   0.691945E-05   0.382662E+00   0.482970E+01
   0.116000E+04  -0.497626E-05   0.700778E-05   0.382673E+00   0.482970E+01
   0.117000E+04  -0.510753E-05   0.709720E-05   0.382684E+00   0.482970E+01
   0.118000E+04  -0.523316E-05   0.718774E-05   0.382696E+00   0.482970E+01
   0.119000E+04  -0.535272E-05   0.727940E-05   0.382706E+00   0.482970E+01
   0.120000E+04  -0.546578E-05   0.737220E-05   0.382717E+00   0.482970E+01
   0.121000E+04  -0.557189E-05   0.746615E-05   0.382728E+00   0.482970E+01
   0.122000E+04  -0.567059E-05   0.756129E-05   0.382739E+00   0.482970E+01
   0.123000E+04  -0.576143E-05   0.765762E-05   0.382749E+00   0.482970E+01
   0.124000E+04  -0.584389E-05   0.775516E-05   0.382759E+00   0.482970E+01
   0.125000E+04  -0.591744E-05   0.785396E-05   0.382769E+00   0.482970E+01
   0.126000E+04  -0.598156E-05   0.795402E-05   0.382779E+00   0.482970E+01
   0.127000E+04  -0.603575E-05   0.805537E-05   0.382789E+00   0.482970E+01
   0.128000E+04  -0.607952E-05   0.815803E-05   0.382799E+00   0.482970E+01
   0.129000E+04  -0.611234E-05   0.826203E-05   0.382807E+00   0.482970E+01
   0.130000E+04  -0.613375E-05   0.836739E-05   0.382816E+00   0.482970E+01
   0.131000E+04  -0.614334E-05   0.847413E-05   0.382826E+00   0.482970E+01
   0.132000E+04  -0.614076E-05   0.858226E-05   0.382835E+00   0.482970E+01
   0.133000E+04  -0.612559E-05   0.869182E-05   0.382843E+00   0.482970E+01
   0.134000E+04  -0.609742E-05   0.880284E-05   0.382850E+00   0.482970E+01
   0.135000E+04  -0.605599E-05   0.891534E-05   0.382860E+00   0.482970E+01
   0.136000E+04  -0.600110E-05   0.902933E-05   0.382869E+00   0.482970E+01
   0.137000E+04  -0.593248E-05   0.914483E-05   0.382876E+00   0.482970E+01
   0.138000E+04  -0.584968E-05   0.926191E-05   0.382881E+00   0.482970E+01
   0.139000E+04  -0.575247E-05   0.938058E-05   0.382889E+00   0.482970E+01
   0.140000E+04  -0.564075E-05   0.950085E-05   0.382900E+00   0.482970E+01
   0.141000E+04  -0.551444E-05   0.962272E-05   0.382908E+00   0.482970E+01
   0.142000E+04  -0.537315E-05   0.974627E-05   0.382911E+00   0.482970E+01
   0.143000E+04  -0.521645E-05   0.987154E-05   0.382916E+00   0.482970E+01
   0.144000E+04  -0.504433E-05   0.999853E-05   0.382926E+00   0.482970E+01
   0.145000E+04  -0.485672E-05   0.101272E-04   0.382937E+00   0.482970E+01
   0.146000E+04  -0.465110E-05   0.102578E-04   0.382943E+00   0.482970E+01
   0.147000E+04  -0.443134E-05   0.103902E-04   0.382946E+00   0.482970E+01
   0.148000E+04  -0.419584E-05   0.105243E-04   0.382957E+00   0.482970E+01
   0.149000E+04  -0.394464E-05   0.106603E-04   0.382963E+00   0.482970E+01
   0.150000E+04  -0.367747E-05   0.107980E-04   0.382964E+00   0.482970E+01
   0.151000E+04  -0.339417E-05   0.109376E-04   0.382969E+00   0.482970E+01
   0.152000E+04  -0.309480E-05   0.110790E-04   0.382980E+00   0.482970E+01
   0.153000E+04  -0.277944E-05   0.112222E-04   0.382991E+00   0.482970E+01
   0.154000E+04  -0.244604E-05   0.113673E-04   0.382993E+00   0.482970E+01
   0.155000E+04  -0.209845E-05   0.115142E-04   0.382998E+00   0.482970E+01
   0.156000E+04  -0.173529E-05   0.116629E-04   0.383008E+00   0.482970E+01
   0.157000E+04  -0.135676E-05   0.118133E-04   0.383012E+00   0.482970E+01
   0.158000E+04  -0.962844E-06   0.119656E-04   0.383012E+00   0.482970E+01
   0.159000E+04  -0.553770E-06   0.121196E-04   0.383016E+00   0.482970E+01
   0.160000E+04  -0.129788E-06   0.122753E-04   0.383028E+00   0.482970E+01
   0.161000E+04   0.308922E-06   0.124327E-04   0.383038E+00   0.482970E+01
   0.162000E+04   0.763498E-06   0.125919E-04   0.383038E+00   0.482970E+01
   0.163000E+04   0.123117E-05   0.127528E-04   0.383043E+00   0.482970E+01
   0.164000E+04   0.171272E-05   0.129155E-04   0.383053E+00   0.482970E+01
   0.165000E+04   0.220786E-05   0.130798E-04   0.383057E+00   0.482970E+01
   0.166000E+04   0.271650E-05   0.132458E-04   0.383055E+00   0.482970E+01
   0.167000E+04   0.323820E-05   0.134372E-04   0.383059E+00   0.482970E+01
   0.168000E+04   0.377263E-05   0.137325E-04   0.383070E+00   0.482970E+01
   0.169000E+04   0.431964E-05   0.140318E-04   0.383081E+00   0.482970E+01
   0.170000E+04   0.487986E-05   0.143355E-04   0.383078E+00   0.482970E+01
   0.171000E+04   0.545131E-05   0.146432E-04   0.383083E+00   0.482970E+01
   0.172000E+04   0.603442E-05   0.149548E-04   0.383093E+00   0.482970E+01
   0.173000E+04   0.662898E-05   0.152705E-04   0.383097E+00   0.482970E+01
   0.174000E+04   0.723485E-05   0.155901E-04   0.383094E+00   0.482970E+01
   0.175000E+04   0.785143E-05   0.159133E-04   0.383096E+00   0.482970E+01
   0.176000E+04   0.847814E-05   0.162401E-04   0.383107E+00   0.482970E+01
   0.177000E+04   0.911484E-05   0.165705E-04   0.383118E+00   0.482970E+01
   0.178000E+04   0.976187E-05   0.169045E-04   0.383114E+00   0.482970E+01
   0.179000E+04   0.104179E-04   0.172420E-04   0.383118E+00   0.482970E+01
   0.180000E+04   0.110830E-04   0.175829E-04   0.383128E+00   0.482970E+01
   0.181000E+04   0.117573E-04   0.179274E-04   0.383132E+00   0.482970E+01
   0.182000E+04   0.124406E-04   0.182753E-04   0.383129E+00   0.482970E+01
   0.183000E+04   0.131322E-04   0.186262E-04   0.383129E+00   0.482970E+01
   0.184000E+04   0.138312E-04   0.189795E-04   0.383149E+00   0.482970E+01
   0.185000E+04   0.145378E-04   0.193359E-04   0.383141E+00   0.482970E+01
   0.186000E+04   0.152517E-04   0.196953E-04   0.383141E+00   0.482970E+01
   0.187000E+04   0.159723E-04   0.200571E-04   0.383148E+00   0.482970E+01
   0.188000E+04   0.166992E-04   0.204215E-04   0.383158E+00   0.482970E+01
   0.189000E+04   0.174326E-04   0.207885E-04   0.383161E+00   0.482970E+01
   0.190000E+04   0.181722E-04   0.211580E-04   0.383157E+00   0.482970E+01
   0.191000E+04   0.189171E-04   0.215294E-04   0.383156E+00   0.482970E+01
   0.192000E+04   0.196664E-04   0.219024E-04   0.383166E+00   0.482970E+01
   0.193000E+04   0.204201E-04   0.222772E-04   0.383177E+00   0.482970E+01
   0.194000E+04   0.211782E-04   0.227993E-04   0.383170E+00   0.482970E+01
   0.195000E+04   0.219406E-04   0.237152E-04   0.383175E+00   0.482970E+01
   0.196000E+04   0.227071E-04   0.247001E-04   0.383184E+00   0.482970E+01
   0.197000E+04   0.234778E-04   0.256886E-04   0.383182E+00   0.482970E+01
   0.198000E+04   0.242528E-04   0.266817E-04   0.383183E+00   0.482970E+01
   0.199000E+04   0.250319E-04   0.278343E-04   0.383191E+00   0.482970E+01
   0.200000E+04   0.258154E-04   0.295954E-04   0.383195E+00   0.482970E+01
   0.201000E+04   0.266034E-04   0.313685E-04   0.383192E+00   0.482970E+01
   0.202000E+04   0.273950E-04   0.331525E-04   0.383190E+00   0.482970E+01
   0.203000E+04   0.281881E-04   0.349444E-04   0.383207E+00   0.482970E+01
   0.204000E+04   0.289853E-04   0.367458E-04   0.383201E+00   0.482970E+01
   0.205000E+04   0.297856E-04   0.385567E-04   0.383199E+00   0.482970E+01
   0.206000E+04   0.305883E-04   0.403754E-04   0.383204E+00   0.482970E+01
   0.207000E+04   0.313929E-04   0.422006E-04   0.383214E+00   0.482970E+01
   0.208000E+04   0.322001E-04   0.440331E-04   0.383218E+00   0.482970E+01
   0.209000E+04   0.330102E-04   0.458736E-04   0.383213E+00   0.482970E+01
   0.210000E+04   0.338221E-04   0.477206E-04   0.383210E+00   0.482970E+01
   0.211000E+04   0.346326E-04   0.495693E-04   0.383230E+00   0.482970E+01
   0.212000E+04   0.354461E-04   0.514241E-04   0.383220E+00   0.482970E+01
   0.213000E+04   0.362614E-04   0.532843E-04   0.383219E+00   0.482970E+01
   0.214000E+04   0.370760E-04   0.551464E-04   0.383235E+00   0.482970E+01
   0.215000E+04   0.378936E-04   0.570139E-04   0.383229E+00   0.482970E+01
   0.216000E+04   0.387130E-04   0.588866E-04   0.383227E+00   0.482970E+01
   0.217000E+04   0.395333E-04   0.607627E-04   0.383231E+00   0.482970E+01
   0.218000E+04   0.403539E-04   0.626409E-04   0.383241E+00   0.482970E+01
   0.219000E+04   0.411759E-04   0.645222E-04   0.383244E+00   0.482970E+01
   0.220000E+04   0.419995E-04   0.664077E-04   0.383238E+00   0.482970E+01
   0.221000E+04   0.428232E-04   0.682956E-04   0.383235E+00   0.482970E+01
   0.222000E+04   0.436431E-04   0.701795E-04   0.383255E+00   0.482970E+01
   0.223000E+04   0.444652E-04   0.720663E-04   0.383245E+00   0.482970E+01
   0.224000E+04   0.452878E-04   0.739550E-04   0.383243E+00   0.482970E+01
   0.225000E+04   0.461081E-04   0.758413E-04   0.383259E+00   0.482970E+01
   0.226000E+04   0.469307E-04   0.777307E-04   0.383253E+00   0.482970E+01
   0.227000E+04   0.477542E-04   0.796227E-04   0.383250E+00   0.482970E+01
   0.228000E+04   0.485775E-04   0.815153E-04   0.383254E+00   0.482970E+01
   0.229000E+04   0.494002E-04   0.834072E-04   0.383264E+00   0.482970E+01
   0.230000E+04   0.502224E-04   0.852990E-04   0.383260E+00   0.482970E+01
   0.231000E+04   0.510451E-04   0.871913E-04   0.383260E+00   0.482970E+01
   0.232000E+04   0.518674E-04   0.890829E-04   0.383268E+00   0.482970E+01
   0.233000E+04   0.526905E-04   0.909753E-04   0.383272E+00   0.482970E+01
   0.234000E+04   0.535114E-04   0.928656E-04   0.383271E+00   0.482970E+01
   0.235000E+04   0.543321E-04   0.947556E-04   0.383265E+00   0.482970E+01
   0.236000E+04   0.551498E-04   0.966409E-04   0.383278E+00   0.482970E+01
   0.237000E+04   0.559696E-04   0.985281E-04   0.383273E+00   0.482970E+01
   0.238000E+04   0.567900E-04   0.100417E-03   0.383270E+00   0.482970E+01
   0.239000E+04   0.576071E-04   0.102302E-03   0.383282E+00   0.482970E+01
   0.240000E+04   0.584262E-04   0.104188E-03   0.383279E+00   0.482970E+01
   0.241000E+04   0.592461E-04   0.106076E-03   0.383275E+00   0.482970E+01
   0.242000E+04   0.600651E-04   0.107964E-03   0.383277E+00   0.482970E+01
   0.243000E+04   0.608825E-04   0.109849E-03   0.383286E+00   0.482970E+01
   0.244000E+04   0.616998E-04   0.111732E-03   0.383292E+00   0.482970E+01
   0.245000E+04   0.625160E-04   0.113614E-03   0.383293E+00   0.482970E+01
   0.246000E+04   0.633308E-04   0.115495E-03   0.383280E+00   0.482970E+01
   0.247000E+04   0.641415E-04   0.117369E-03   0.383275E+00   0.482970E+01
   0.248000E+04   0.649450E-04   0.119231E-03   0.383290E+00   0.482970E+01
   0.249000E+04   0.657411E-04   0.121077E-03   0.383305E+00   0.482970E+01
   0.250000E+04   0.665334E-04   0.122913E-03   0.383315E+00   0.482970E+01
   0.251000E+04   0.673252E-04   0.124744E-03   0.383310E+00   0.482970E+01
   0.252000E+04   0.681186E-04   0.126573E-03   0.383305E+00   0.482970E+01
   0.253000E+04   0.689128E-04   0.128403E-03   0.383297E+00   0.482970E+01
   0.254000E+04   0.697049E-04   0.130229E-03   0.383294E+00   0.482970E+01
   0.255000E+04   0.704934E-04   0.132047E-03   0.383303E+00   0.482970E+01
   0.256000E+04   0.712793E-04   0.133857E-03   0.383320E+00   0.482970E+01
   0.257000E+04   0.720662E-04   0.135663E-03   0.383331E+00   0.482970E+01
   0.258000E+04   0.728567E-04   0.137470E-03   0.383328E+00   0.482970E+01
   0.259000E+04   0.736524E-04   0.139284E-03   0.383319E+00   0.482970E+01
   0.260000E+04   0.744519E-04   0.141104E-03   0.383309E+00   0.482970E+01
   0.261000E+04   0.752523E-04   0.142926E-03   0.383306E+00   0.482970E+01
   0.262000E+04   0.760511E-04   0.144745E-03   0.383314E+00   0.482970E+01
   0.263000E+04   0.768484E-04   0.146559E-03   0.383331E+00   0.482970E+01
   0.264000E+04   0.776486E-04   0.148374E-03   0.383342E+00   0.482970E+01
   0.265000E+04   0.784541E-04   0.150196E-03   0.383340E+00   0.482970E+01
   0.266000E+04   0.792651E-04   0.152025E-03   0.383332E+00   0.482970E+01
   0.267000E+04   0.800800E-04   0.153863E-03   0.383320E+00   0.482970E+01
   0.268000E+04   0.808958E-04   0.155704E-03   0.383317E+00   0.482970E+01
   0.269000E+04   0.817102E-04   0.157545E-03   0.383325E+00   0.482970E+01
   0.270000E+04   0.825224E-04   0.159381E-03   0.383338E+00   0.482970E+01
   0.271000E+04   0.833356E-04   0.161215E-03   0.383349E+00   0.482970E+01
   0.272000E+04   0.841525E-04   0.163054E-03   0.383348E+00   0.482970E+01
   0.273000E+04   0.849737E-04   0.164899E-03   0.383340E+00   0.482970E+01
   0.274000E+04   0.857976E-04   0.166750E-03   0.383331E+00   0.482970E+01
   0.275000E+04   0.866209E-04   0.168603E-03   0.383325E+00   0.482970E+01
   0.276000E+04   0.874408E-04   0.170452E-03   0.383329E+00   0.482970E+01
   0.277000E+04   0.882554E-04   0.172292E-03   0.383342E+00   0.482970E+01
   0.278000E+04   0.890661E-04   0.174123E-03   0.383351E+00   0.482970E+01
   0.279000E+04   0.898786E-04   0.175953E-03   0.383339E+00   0.482970E+01
   0.280000E+04   0.906922E-04   0.177783E-03   0.383343E+00   0.482970E+01
   0.281000E+04   0.915086E-04   0.179616E-03   0.383347E+00   0.482970E+01
   0.282000E+04   0.923293E-04   0.181454E-03   0.383346E+00   0.482970E+01
   0.283000E+04   0.931535E-04   0.183298E-03   0.383342E+00   0.482970E+01
   0.284000E+04   0.939785E-04   0.185145E-03   0.383339E+00   0.482970E+01
   0.285000E+04   0.948017E-04   0.186990E-03   0.383342E+00   0.482970E+01
   0.286000E+04   0.956237E-04   0.188834E-03   0.383346E+00   0.482970E+01
   0.287000E+04   0.964461E-04   0.190677E-03   0.383346E+00   0.482970E+01
   0.288000E+04   0.972675E-04   0.192521E-03   0.383340E+00   0.482970E+01
   0.289000E+04   0.980844E-04   0.194360E-03   0.383338E+00   0.482970E+01
   0.290000E+04   0.988937E-04   0.196188E-03   0.383343E+00   0.482970E+01
   0.291000E+04   0.996973E-04   0.198005E-03   0.383349E+00   0.482970E+01
   0.292000E+04   0.100495E-03   0.199814E-03   0.383338E+00   0.482970E+01
   0.293000E+04   0.101286E-03   0.201609E-03   0.383343E+00   0.482970E+01
   0.294000E+04   0.102070E-03   0.203391E-03   0.383348E+00   0.482970E+01
   0.295000E+04   0.102850E-03   0.205164E-03   0.383348E+00   0.482970E+01
   0.296000E+04   0.103624E-03   0.206928E-03   0.383341E+00   0.482970E+01
   0.297000E+04   0.104390E-03   0.208678E-03   0.383338E+00   0.482970E+01
   0.298000E+04   0.105144E-03   0.210406E-03   0.383340E+00   0.482970E+01
   0.299000E+04   0.105885E-03   0.212109E-03   0.383355E+00   0.482970E+01
   0.300000E+04   0.106618E-03   0.213792E-03   0.383366E+00   0.482970E+01
   0.301000E+04   0.107343E-03   0.215457E-03   0.383356E+00   0.482970E+01
   0.302000E+04   0.108060E-03   0.217106E-03   0.383340E+00   0.482970E+01
   0.303000E+04   0.108764E-03   0.218731E-03   0.383332E+00   0.482970E+01
   0.304000E+04   0.109454E-03   0.220327E-03   0.383342E+00   0.482970E+01
   0.305000E+04   0.110130E-03   0.221892E-03   0.383359E+00   0.482970E+01
   0.306000E+04   0.110798E-03   0.223433E-03   0.383373E+00   0.482970E+01
   0.307000E+04   0.111464E-03   0.224960E-03   0.383373E+00   0.482970E+01
   0.308000E+04   0.112131E-03   0.226480E-03   0.383364E+00   0.482970E+01
   0.309000E+04   0.112799E-03   0.227995E-03   0.383352E+00   0.482970E+01
   0.310000E+04   0.113464E-03   0.229503E-03   0.383346E+00   0.482970E+01
   0.311000E+04   0.114124E-03   0.230997E-03   0.383351E+00   0.482970E+01
   0.312000E+04   0.114776E-03   0.232474E-03   0.383365E+00   0.482970E+01
   0.313000E+04   0.115427E-03   0.233939E-03   0.383380E+00   0.482970E+01
   0.314000E+04   0.116081E-03   0.235402E-03   0.383381E+00   0.482970E+01
   0.315000E+04   0.116740E-03   0.236868E-03   0.383373E+00   0.482970E+01
   0.316000E+04   0.117403E-03   0.238337E-03   0.383362E+00   0.482970E+01
   0.317000E+04   0.118066E-03   0.239807E-03   0.383357E+00   0.482970E+01
   0.318000E+04   0.118726E-03   0.241272E-03   0.383361E+00   0.482970E+01
   0.319000E+04   0.119378E-03   0.242725E-03   0.383371E+00   0.482970E+01
   0.320000E+04   0.120027E-03   0.244166E-03   0.383386E+00   0.482970E+01
   0.321000E+04   0.120678E-03   0.245604E-03   0.383391E+00   0.482970E+01
   0.322000E+04   0.121334E-03   0.247044E-03   0.383384E+00   0.482970E+01
   0.323000E+04   0.121992E-03   0.248490E-03   0.383373E+00   0.482970E+01
   0.324000E+04   0.122651E-03   0.249938E-03   0.383364E+00   0.482970E+01
   0.325000E+04   0.123306E-03   0.251382E-03   0.383367E+00   0.482970E+01
   0.326000E+04   0.123953E-03   0.252813E-03   0.383375E+00   0.482970E+01
   0.327000E+04   0.124594E-03   0.254231E-03   0.383389E+00   0.482970E+01
   0.328000E+04   0.125234E-03   0.255641E-03   0.383398E+00   0.482970E+01
   0.329000E+04   0.125878E-03   0.257052E-03   0.383395E+00   0.482970E+01
   0.330000E+04   0.126526E-03   0.258469E-03   0.383384E+00   0.482970E+01
   0.331000E+04   0.127175E-03   0.259890E-03   0.383371E+00   0.482970E+01
   0.332000E+04   0.127822E-03   0.261309E-03   0.383369E+00   0.482970E+01
   0.333000E+04   0.128462E-03   0.262718E-03   0.383376E+00   0.482970E+01
   0.334000E+04   0.129094E-03   0.264112E-03   0.383388E+00   0.482970E+01
   0.335000E+04   0.129722E-03   0.265496E-03   0.383401E+00   0.482970E+01
   0.336000E+04   0.130353E-03   0.266877E-03   0.383403E+00   0.482970E+01
   0.337000E+04   0.130989E-03   0.268263E-03   0.383394E+00   0.482970E+01
   0.338000E+04   0.131629E-03   0.269656E-03   0.383381E+00   0.482970E+01
   0.339000E+04   0.132257E-03   0.271033E-03   0.383380E+00   0.482970E+01
   0.340000E+04   0.132881E-03   0.272401E-03   0.383390E+00   0.482970E+01
   0.341000E+04   0.133510E-03   0.273772E-03   0.383386E+00   0.482970E+01
   0.342000E+04   0.134144E-03   0.275149E-03   0.383382E+00   0.482970E+01
   0.343000E+04   0.134781E-03   0.276531E-03   0.383383E+00   0.482970E+01
   0.344000E+04   0.135420E-03   0.277914E-03   0.383389E+00   0.482970E+01
   0.345000E+04   0.136065E-03   0.279304E-03   0.383391E+00   0.482970E+01
   0.346000E+04   0.136717E-03   0.280707E-03   0.383386E+00   0.482970E+01
   0.347000E+04   0.137372E-03   0.282118E-03   0.383379E+00   0.482970E+01
   0.348000E+04   0.138021E-03   0.283527E-03   0.383379E+00   0.482970E+01
   0.349000E+04   0.138664E-03   0.284926E-03   0.383386E+00   0.482970E+01
   0.350000E+04   0.139303E-03   0.286318E-03   0.383390E+00   0.482970E+01
   0.351000E+04   0.139942E-03   0.287712E-03   0.383388E+00   0.482970E+01
   0.352000E+04   0.140580E-03   0.289106E-03   0.383373E+00   0.482970E+01
   0.353000E+04   0.141206E-03   0.290489E-03   0.383365E+00   0.482970E+01
   0.354000E+04   0.141815E-03   0.291845E-03   0.383373E+00   0.482970E+01
   0.355000E+04   0.142404E-03   0.293169E-03   0.383389E+00   0.482970E+01
   0.356000E+04   0.142983E-03   0.294465E-03   0.383402E+00   0.482970E+01
   0.357000E+04   0.143556E-03   0.295747E-03   0.383401E+00   0.482970E+01
   0.358000E+04   0.144130E-03   0.297023E-03   0.383391E+00   0.482970E+01
   0.359000E+04   0.144702E-03   0.298296E-03   0.383377E+00   0.482970E+01
   0.360000E+04   0.145268E-03   0.299560E-03   0.383373E+00   0.482970E+01
   0.361000E+04   0.145824E-03   0.300806E-03   0.383378E+00   0.482970E+01
   0.362000E+04   0.146369E-03   0.302032E-03   0.383389E+00   0.482970E+01
   0.363000E+04   0.146907E-03   0.303237E-03   0.383400E+00   0.482970E+01
   0.364000E+04   0.147447E-03   0.304438E-03   0.383388E+00   0.482970E+01
   0.365000E+04   0.147990E-03   0.305638E-03   0.383390E+00   0.482970E+01
   0.366000E+04   0.148538E-03   0.306844E-03   0.383394E+00   0.482970E+01
   0.367000E+04   0.149094E-03   0.308060E-03   0.383395E+00   0.482970E+01
   0.368000E+04   0.149658E-03   0.309290E-03   0.383390E+00   0.482970E+01
   0.369000E+04   0.150224E-03   0.310526E-03   0.383385E+00   0.482970E+01
   0.370000E+04   0.150786E-03   0.311760E-03   0.383387E+00   0.482970E+01
   0.371000E+04   0.151345E-03   0.312987E-03   0.383392E+00   0.482970E+01
   0.372000E+04   0.151905E-03   0.314217E-03   0.383385E+00   0.482970E+01
   0.373000E+04   0.152460E-03   0.315440E-03   0.383386E+00   0.482970E+01
   0.374000E+04   0.153009E-03   0.316654E-03   0.383391E+00   0.482970E+01
   0.375000E+04   0.153555E-03   0.317862E-03   0.383393E+00   0.482970E+01
   0.376000E+04   0.154099E-03   0.319068E-03   0.383387E+00   0.482970E+01
   0.377000E+04   0.154637E-03   0.320267E-03   0.383379E+00   0.482970E+01
   0.378000E+04   0.155156E-03   0.321438E-03   0.383392E+00   0.482970E+01
   0.379000E+04   0.155669E-03   0.322595E-03   0.383385E+00   0.482970E+01
   0.380000E+04   0.156176E-03   0.323742E-03   0.383380E+00   0.482970E+01
   0.381000E+04   0.156672E-03   0.324871E-03   0.383381E+00   0.482970E+01
   0.382000E+04   0.157155E-03   0.325977E-03   0.383390E+00   0.482970E+01
   0.383000E+04   0.157631E-03   0.327066E-03   0.383394E+00   0.482970E+01
   0.384000E+04   0.158103E-03   0.328144E-03   0.383392E+00   0.482970E+01
   0.385000E+04   0.158572E-03   0.329216E-03   0.383375E+00   0.482970E+01
   0.386000E+04   0.159028E-03   0.330269E-03   0.383370E+00   0.482970E+01
   0.387000E+04   0.159465E-03   0.331289E-03   0.383380E+00   0.482970E+01
   0.388000E+04   0.159884E-03   0.332271E-03   0.383398E+00   0.482970E+01
   0.389000E+04   0.160293E-03   0.333228E-03   0.383409E+00   0.482970E+01
   0.390000E+04   0.160701E-03   0.334171E-03   0.383406E+00   0.482970E+01
   0.391000E+04   0.161113E-03   0.335112E-03   0.383395E+00   0.482970E+01
   0.392000E+04   0.161527E-03   0.336055E-03   0.383380E+00   0.482970E+01
   0.393000E+04   0.161937E-03   0.336991E-03   0.383378E+00   0.482970E+01