title="breakthrough data set at     5 wells"
variables="time(days)","cavg","cpk","upk","zswi"
zone i=     1295
   0.100000E+02   0.291955E-09   0.459944E-09   0.454156E+00   0.486485E+01
   0.200000E+02   0.894334E-09   0.142499E-08   0.385902E+00   0.483959E+01
   0.300000E+02   0.214359E-08   0.342618E-08   0.385611E+00   0.483959E+01
   0.400000E+02   0.448662E-08   0.717138E-08   0.385558E+00   0.483959E+01
   0.500000E+02   0.854098E-08   0.136296E-07   0.385515E+00   0.483959E+01
   0.600000E+02   0.151081E-07   0.240436E-07   0.385470E+00   0.483959E+01
   0.700000E+02   0.251691E-07   0.399123E-07   0.385427E+00   0.483959E+01
   0.800000E+02   0.398676E-07   0.629527E-07   0.385388E+00   0.483959E+01
   0.900000E+02   0.604755E-07   0.950354E-07   0.385361E+00   0.483959E+01
   0.100000E+03   0.883670E-07   0.138134E-06   0.385328E+00   0.483959E+01
   0.110000E+03   0.124964E-06   0.194229E-06   0.385300E+00   0.483959E+01
   0.120000E+03   0.171715E-06   0.265285E-06   0.385292E+00   0.483959E+01
   0.130000E+03   0.230013E-06   0.353089E-06   0.385276E+00   0.483959E+01
   0.140000E+03   0.301185E-06   0.459267E-06   0.385258E+00   0.483959E+01
   0.150000E+03   0.386444E-06   0.585205E-06   0.385242E+00   0.483959E+01
   0.160000E+03   0.486814E-06   0.731916E-06   0.385220E+00   0.483959E+01
   0.170000E+03   0.603175E-06   0.900179E-06   0.385213E+00   0.483959E+01
   0.180000E+03   0.736277E-06   0.109053E-05   0.385211E+00   0.483959E+01
   0.190000E+03   0.886578E-06   0.130299E-05   0.385210E+00   0.483959E+01
   0.200000E+03   0.105438E-05   0.153735E-05   0.385210E+00   0.483959E+01
   0.210000E+03   0.123976E-05   0.179306E-05   0.385212E+00   0.483959E+01
   0.220000E+03   0.144261E-05   0.206928E-05   0.385216E+00   0.483959E+01
   0.230000E+03   0.166260E-05   0.236484E-05   0.385223E+00   0.483959E+01
   0.240000E+03   0.189922E-05   0.267835E-05   0.385232E+00   0.483959E+01
   0.250000E+03   0.215176E-05   0.300811E-05   0.385242E+00   0.483959E+01
   0.260000E+03   0.241936E-05   0.335224E-05   0.385255E+00   0.483959E+01
   0.270000E+03   0.270096E-05   0.370862E-05   0.385268E+00   0.483959E+01
   0.280000E+03   0.299536E-05   0.407497E-05   0.385284E+00   0.483959E+01
   0.290000E+03   0.330123E-05   0.444882E-05   0.385300E+00   0.483959E+01
   0.300000E+03   0.361709E-05   0.482758E-05   0.385318E+00   0.483959E+01
   0.310000E+03   0.394133E-05   0.520857E-05   0.385337E+00   0.483959E+01
   0.320000E+03   0.427225E-05   0.558900E-05   0.385357E+00   0.483959E+01
   0.330000E+03   0.460809E-05   0.596605E-05   0.385378E+00   0.483959E+01
   0.340000E+03   0.494698E-05   0.633691E-05   0.385399E+00   0.483959E+01
   0.350000E+03   0.528706E-05   0.669875E-05   0.385421E+00   0.483959E+01
   0.360000E+03   0.562640E-05   0.712410E-05   0.385443E+00   0.483959E+01
   0.370000E+03   0.596309E-05   0.754661E-05   0.385466E+00   0.483959E+01
   0.380000E+03   0.629520E-05   0.795977E-05   0.385489E+00   0.483959E+01
   0.390000E+03   0.662087E-05   0.836072E-05   0.385513E+00   0.483959E+01
   0.400000E+03   0.693826E-05   0.874672E-05   0.385537E+00   0.483959E+01
   0.410000E+03   0.724564E-05   0.911520E-05   0.385561E+00   0.483959E+01
   0.420000E+03   0.754137E-05   0.946380E-05   0.385585E+00   0.483959E+01
   0.430000E+03   0.782392E-05   0.979038E-05   0.385609E+00   0.483959E+01
   0.440000E+03   0.809192E-05   0.102575E-04   0.385633E+00   0.483959E+01
   0.450000E+03   0.834413E-05   0.107952E-04   0.385658E+00   0.483959E+01
   0.460000E+03   0.857945E-05   0.113317E-04   0.385682E+00   0.483959E+01
   0.470000E+03   0.879690E-05   0.118661E-04   0.385707E+00   0.483959E+01
   0.480000E+03   0.899562E-05   0.123974E-04   0.385731E+00   0.483959E+01
   0.490000E+03   0.917483E-05   0.129249E-04   0.385755E+00   0.483959E+01
   0.500000E+03   0.933383E-05   0.134477E-04   0.385780E+00   0.483959E+01
   0.510000E+03   0.947196E-05   0.139650E-04   0.385804E+00   0.483959E+01
   0.520000E+03   0.958864E-05   0.144756E-04   0.385828E+00   0.483959E+01
   0.530000E+03   0.968331E-05   0.149786E-04   0.385852E+00   0.483959E+01
   0.540000E+03   0.975547E-05   0.154725E-04   0.385876E+00   0.483959E+01
   0.550000E+03   0.980468E-05   0.159559E-04   0.385900E+00   0.483959E+01
   0.560000E+03   0.983058E-05   0.164272E-04   0.385923E+00   0.483959E+01
   0.570000E+03   0.983293E-05   0.168847E-04   0.385946E+00   0.483959E+01
   0.580000E+03   0.981159E-05   0.173266E-04   0.385969E+00   0.483959E+01
   0.590000E+03   0.976659E-05   0.177511E-04   0.385992E+00   0.483959E+01
   0.600000E+03   0.969812E-05   0.181564E-04   0.386015E+00   0.483959E+01
   0.610000E+03   0.960659E-05   0.185410E-04   0.386037E+00   0.483959E+01
   0.620000E+03   0.949261E-05   0.189034E-04   0.386059E+00   0.483959E+01
   0.630000E+03   0.935702E-05   0.192424E-04   0.386081E+00   0.483959E+01
   0.640000E+03   0.920088E-05   0.195574E-04   0.386103E+00   0.483959E+01
   0.650000E+03   0.902550E-05   0.198477E-04   0.386125E+00   0.483959E+01
   0.660000E+03   0.883240E-05   0.201136E-04   0.386146E+00   0.483959E+01
   0.670000E+03   0.862329E-05   0.203553E-04   0.386168E+00   0.483959E+01
   0.680000E+03   0.840007E-05   0.205740E-04   0.386189E+00   0.483959E+01
   0.690000E+03   0.816480E-05   0.207709E-04   0.386210E+00   0.483959E+01
   0.700000E+03   0.791964E-05   0.209481E-04   0.386230E+00   0.483959E+01
   0.710000E+03   0.766684E-05   0.211077E-04   0.386251E+00   0.483959E+01
   0.720000E+03   0.740871E-05   0.212523E-04   0.386271E+00   0.483959E+01
   0.730000E+03   0.714754E-05   0.213849E-04   0.386292E+00   0.483959E+01
   0.740000E+03   0.688563E-05   0.215085E-04   0.386312E+00   0.483959E+01
   0.750000E+03   0.662521E-05   0.216265E-04   0.386331E+00   0.483959E+01
   0.760000E+03   0.636845E-05   0.217421E-04   0.386351E+00   0.483959E+01
   0.770000E+03   0.611741E-05   0.218586E-04   0.386370E+00   0.483959E+01
   0.780000E+03   0.587405E-05   0.219795E-04   0.386389E+00   0.483959E+01
   0.790000E+03   0.564025E-05   0.221078E-04   0.386408E+00   0.483959E+01
   0.800000E+03   0.541772E-05   0.222467E-04   0.386427E+00   0.483959E+01
   0.810000E+03   0.520809E-05   0.223991E-04   0.386445E+00   0.483959E+01
   0.820000E+03   0.501286E-05   0.225677E-04   0.386463E+00   0.483959E+01
   0.830000E+03   0.483342E-05   0.227551E-04   0.386481E+00   0.483959E+01
   0.840000E+03   0.467105E-05   0.229638E-04   0.386499E+00   0.483959E+01
   0.850000E+03   0.452694E-05   0.231959E-04   0.386517E+00   0.483959E+01
   0.860000E+03   0.440216E-05   0.234536E-04   0.386534E+00   0.483959E+01
   0.870000E+03   0.429772E-05   0.237386E-04   0.386551E+00   0.483959E+01
   0.880000E+03   0.421453E-05   0.240528E-04   0.386568E+00   0.483959E+01
   0.890000E+03   0.415341E-05   0.243978E-04   0.386585E+00   0.483959E+01
   0.900000E+03   0.411513E-05   0.247752E-04   0.386601E+00   0.483959E+01
   0.910000E+03   0.410039E-05   0.251863E-04   0.386617E+00   0.483959E+01
   0.920000E+03   0.410980E-05   0.256324E-04   0.386633E+00   0.483959E+01
   0.930000E+03   0.414394E-05   0.261150E-04   0.386649E+00   0.483959E+01
   0.940000E+03   0.420331E-05   0.266352E-04   0.386665E+00   0.483959E+01
   0.950000E+03   0.428835E-05   0.271943E-04   0.386681E+00   0.483959E+01
   0.960000E+03   0.439945E-05   0.277932E-04   0.386696E+00   0.483959E+01
   0.970000E+03   0.453691E-05   0.284332E-04   0.386711E+00   0.483959E+01
   0.980000E+03   0.470100E-05   0.291152E-04   0.386726E+00   0.483959E+01
   0.990000E+03   0.489190E-05   0.298401E-04   0.386741E+00   0.483959E+01
   0.100000E+04   0.510971E-05   0.306088E-04   0.386755E+00   0.483959E+01
   0.101000E+04   0.535448E-05   0.314221E-04   0.386770E+00   0.483959E+01
   0.102000E+04   0.562618E-05   0.322806E-04   0.386784E+00   0.483959E+01
   0.103000E+04   0.592471E-05   0.331847E-04   0.386798E+00   0.483959E+01
   0.104000E+04   0.624990E-05   0.341349E-04   0.386812E+00   0.483959E+01
   0.105000E+04   0.660152E-05   0.351315E-04   0.386826E+00   0.483959E+01
   0.106000E+04   0.697928E-05   0.361745E-04   0.386839E+00   0.483959E+01
   0.107000E+04   0.738282E-05   0.372638E-04   0.386853E+00   0.483959E+01
   0.108000E+04   0.781174E-05   0.383994E-04   0.386866E+00   0.483959E+01
   0.109000E+04   0.826561E-05   0.395809E-04   0.386879E+00   0.483959E+01
   0.110000E+04   0.874394E-05   0.408079E-04   0.386892E+00   0.483959E+01
   0.111000E+04   0.924624E-05   0.420799E-04   0.386905E+00   0.483959E+01
   0.112000E+04   0.977196E-05   0.433962E-04   0.386918E+00   0.483959E+01
   0.113000E+04   0.103205E-04   0.447560E-04   0.386930E+00   0.483959E+01
   0.114000E+04   0.108914E-04   0.461586E-04   0.386943E+00   0.483959E+01
   0.115000E+04   0.114841E-04   0.476031E-04   0.386955E+00   0.483959E+01
   0.116000E+04   0.120979E-04   0.490885E-04   0.386967E+00   0.483959E+01
   0.117000E+04   0.127322E-04   0.506139E-04   0.386979E+00   0.483959E+01
   0.118000E+04   0.133866E-04   0.521783E-04   0.386990E+00   0.483959E+01
   0.119000E+04   0.140604E-04   0.537807E-04   0.387002E+00   0.483959E+01
   0.120000E+04   0.147529E-04   0.554195E-04   0.387016E+00   0.483959E+01
   0.121000E+04   0.154636E-04   0.570941E-04   0.387029E+00   0.483959E+01
   0.122000E+04   0.161896E-04   0.587971E-04   0.387051E+00   0.483959E+01
   0.123000E+04   0.169317E-04   0.605310E-04   0.387071E+00   0.483959E+01
   0.124000E+04   0.176880E-04   0.622915E-04   0.387100E+00   0.483959E+01
   0.125000E+04   0.184598E-04   0.640813E-04   0.387115E+00   0.483959E+01
   0.126000E+04   0.192483E-04   0.659035E-04   0.387116E+00   0.483959E+01
   0.127000E+04   0.200517E-04   0.677539E-04   0.387131E+00   0.483959E+01
   0.128000E+04   0.208692E-04   0.696307E-04   0.387148E+00   0.483959E+01
   0.129000E+04   0.217007E-04   0.715345E-04   0.387161E+00   0.483959E+01
   0.130000E+04   0.225476E-04   0.734683E-04   0.387163E+00   0.483959E+01
   0.131000E+04   0.234087E-04   0.754301E-04   0.387168E+00   0.483959E+01
   0.132000E+04   0.242826E-04   0.774165E-04   0.387180E+00   0.483959E+01
   0.133000E+04   0.251683E-04   0.794258E-04   0.387195E+00   0.483959E+01
   0.134000E+04   0.260678E-04   0.814627E-04   0.387200E+00   0.483959E+01
   0.135000E+04   0.269819E-04   0.835292E-04   0.387210E+00   0.483959E+01
   0.136000E+04   0.279084E-04   0.856208E-04   0.387233E+00   0.483959E+01
   0.137000E+04   0.288456E-04   0.877333E-04   0.387253E+00   0.483959E+01
   0.138000E+04   0.297934E-04   0.898671E-04   0.387249E+00   0.483959E+01
   0.139000E+04   0.307530E-04   0.920249E-04   0.387240E+00   0.483959E+01
   0.140000E+04   0.317237E-04   0.942054E-04   0.387252E+00   0.483959E+01
   0.141000E+04   0.327054E-04   0.964083E-04   0.387281E+00   0.483959E+01
   0.142000E+04   0.336978E-04   0.986334E-04   0.387302E+00   0.483959E+01
   0.143000E+04   0.347016E-04   0.100882E-03   0.387306E+00   0.483959E+01
   0.144000E+04   0.357147E-04   0.103150E-03   0.387307E+00   0.483959E+01
   0.145000E+04   0.367355E-04   0.105433E-03   0.387309E+00   0.483959E+01
   0.146000E+04   0.377636E-04   0.107731E-03   0.387317E+00   0.483959E+01
   0.147000E+04   0.388018E-04   0.110050E-03   0.387322E+00   0.483959E+01
   0.148000E+04   0.398508E-04   0.112392E-03   0.387332E+00   0.483959E+01
   0.149000E+04   0.409082E-04   0.114752E-03   0.387350E+00   0.483959E+01
   0.150000E+04   0.419723E-04   0.117125E-03   0.387369E+00   0.483959E+01
   0.151000E+04   0.430435E-04   0.119513E-03   0.387369E+00   0.483959E+01
   0.152000E+04   0.441226E-04   0.121918E-03   0.387356E+00   0.483959E+01
   0.153000E+04   0.452081E-04   0.124336E-03   0.387358E+00   0.483959E+01
   0.154000E+04   0.462999E-04   0.126768E-03   0.387375E+00   0.483959E+01
   0.155000E+04   0.473987E-04   0.129214E-03   0.387396E+00   0.483959E+01
   0.156000E+04   0.485055E-04   0.131678E-03   0.387401E+00   0.483959E+01
   0.157000E+04   0.496185E-04   0.134155E-03   0.387405E+00   0.483959E+01
   0.158000E+04   0.507356E-04   0.136640E-03   0.387409E+00   0.483959E+01
   0.159000E+04   0.518553E-04   0.139131E-03   0.387414E+00   0.483959E+01
   0.160000E+04   0.529803E-04   0.141632E-03   0.387411E+00   0.483959E+01
   0.161000E+04   0.541120E-04   0.144149E-03   0.387413E+00   0.483959E+01
   0.162000E+04   0.552486E-04   0.146677E-03   0.387432E+00   0.483959E+01
   0.163000E+04   0.563883E-04   0.149212E-03   0.387453E+00   0.483959E+01
   0.164000E+04   0.575314E-04   0.151754E-03   0.387460E+00   0.483959E+01
   0.165000E+04   0.586785E-04   0.154306E-03   0.387449E+00   0.483959E+01
   0.166000E+04   0.598277E-04   0.156861E-03   0.387444E+00   0.483959E+01
   0.167000E+04   0.609786E-04   0.159421E-03   0.387450E+00   0.483959E+01
   0.168000E+04   0.621316E-04   0.161986E-03   0.387469E+00   0.483959E+01
   0.169000E+04   0.632890E-04   0.164561E-03   0.387478E+00   0.483959E+01
   0.170000E+04   0.644500E-04   0.167146E-03   0.387483E+00   0.483959E+01
   0.171000E+04   0.656120E-04   0.169733E-03   0.387492E+00   0.483959E+01
   0.172000E+04   0.667729E-04   0.172318E-03   0.387500E+00   0.483959E+01
   0.173000E+04   0.679343E-04   0.174904E-03   0.387493E+00   0.483959E+01
   0.174000E+04   0.690983E-04   0.177498E-03   0.387484E+00   0.483959E+01
   0.175000E+04   0.702637E-04   0.180096E-03   0.387496E+00   0.483959E+01
   0.176000E+04   0.714295E-04   0.182696E-03   0.387518E+00   0.483959E+01
   0.177000E+04   0.725954E-04   0.185297E-03   0.387533E+00   0.483959E+01
   0.178000E+04   0.737626E-04   0.187903E-03   0.387530E+00   0.483959E+01
   0.179000E+04   0.749297E-04   0.190510E-03   0.387523E+00   0.483959E+01
   0.180000E+04   0.760950E-04   0.193113E-03   0.387522E+00   0.483959E+01
   0.181000E+04   0.772582E-04   0.195713E-03   0.387533E+00   0.483959E+01
   0.182000E+04   0.784223E-04   0.198317E-03   0.387541E+00   0.483959E+01
   0.183000E+04   0.795883E-04   0.200927E-03   0.387545E+00   0.483959E+01
   0.184000E+04   0.807534E-04   0.203537E-03   0.387557E+00   0.483959E+01
   0.185000E+04   0.819157E-04   0.206141E-03   0.387568E+00   0.483959E+01
   0.186000E+04   0.830755E-04   0.208742E-03   0.387568E+00   0.483959E+01
   0.187000E+04   0.842347E-04   0.211342E-03   0.387554E+00   0.483959E+01
   0.188000E+04   0.853929E-04   0.213943E-03   0.387553E+00   0.483959E+01
   0.189000E+04   0.865495E-04   0.216541E-03   0.387569E+00   0.483959E+01
   0.190000E+04   0.877036E-04   0.219135E-03   0.387592E+00   0.483959E+01
   0.191000E+04   0.888568E-04   0.221730E-03   0.387596E+00   0.483959E+01
   0.192000E+04   0.900090E-04   0.224324E-03   0.387589E+00   0.483959E+01
   0.193000E+04   0.911575E-04   0.226911E-03   0.387588E+00   0.483959E+01
   0.194000E+04   0.923010E-04   0.229487E-03   0.387592E+00   0.483959E+01
   0.195000E+04   0.934421E-04   0.232060E-03   0.387596E+00   0.483959E+01
   0.196000E+04   0.945833E-04   0.234636E-03   0.387597E+00   0.483959E+01
   0.197000E+04   0.957227E-04   0.237209E-03   0.387608E+00   0.483959E+01
   0.198000E+04   0.968580E-04   0.239775E-03   0.387621E+00   0.483959E+01
   0.199000E+04   0.979881E-04   0.242329E-03   0.387631E+00   0.483959E+01
   0.200000E+04   0.991149E-04   0.244878E-03   0.387620E+00   0.483959E+01
   0.201000E+04   0.100239E-03   0.247421E-03   0.387608E+00   0.483959E+01
   0.202000E+04   0.101359E-03   0.249957E-03   0.387614E+00   0.483959E+01
   0.203000E+04   0.102474E-03   0.252484E-03   0.387637E+00   0.483959E+01
   0.204000E+04   0.103586E-03   0.255005E-03   0.387648E+00   0.483959E+01
   0.205000E+04   0.104696E-03   0.257524E-03   0.387645E+00   0.483959E+01
   0.206000E+04   0.105801E-03   0.260032E-03   0.387645E+00   0.483959E+01
   0.207000E+04   0.106899E-03   0.262524E-03   0.387645E+00   0.483959E+01
   0.208000E+04   0.107990E-03   0.265003E-03   0.387647E+00   0.483959E+01
   0.209000E+04   0.109079E-03   0.267476E-03   0.387643E+00   0.483959E+01
   0.210000E+04   0.110164E-03   0.269945E-03   0.387649E+00   0.483959E+01
   0.211000E+04   0.111245E-03   0.272404E-03   0.387664E+00   0.483959E+01
   0.212000E+04   0.112319E-03   0.274848E-03   0.387682E+00   0.483959E+01
   0.213000E+04   0.113386E-03   0.277279E-03   0.387680E+00   0.483959E+01
   0.214000E+04   0.114449E-03   0.279700E-03   0.387663E+00   0.483959E+01
   0.215000E+04   0.115506E-03   0.282106E-03   0.387659E+00   0.483959E+01
   0.216000E+04   0.116555E-03   0.284498E-03   0.387669E+00   0.483959E+01
   0.217000E+04   0.117599E-03   0.286878E-03   0.387687E+00   0.483959E+01
   0.218000E+04   0.118639E-03   0.289252E-03   0.387690E+00   0.483959E+01
   0.219000E+04   0.119674E-03   0.291614E-03   0.387691E+00   0.483959E+01
   0.220000E+04   0.120701E-03   0.293959E-03   0.387694E+00   0.483959E+01
   0.221000E+04   0.121718E-03   0.296282E-03   0.387698E+00   0.483959E+01
   0.222000E+04   0.122729E-03   0.298590E-03   0.387691E+00   0.483959E+01
   0.223000E+04   0.123735E-03   0.300889E-03   0.387684E+00   0.483959E+01
   0.224000E+04   0.124736E-03   0.303177E-03   0.387697E+00   0.483959E+01
   0.225000E+04   0.125729E-03   0.305447E-03   0.387716E+00   0.483959E+01
   0.226000E+04   0.126714E-03   0.307700E-03   0.387726E+00   0.483959E+01
   0.227000E+04   0.127693E-03   0.309941E-03   0.387717E+00   0.483959E+01
   0.228000E+04   0.128665E-03   0.312164E-03   0.387705E+00   0.483959E+01
   0.229000E+04   0.129628E-03   0.314367E-03   0.387705E+00   0.483959E+01
   0.230000E+04   0.130582E-03   0.316551E-03   0.387721E+00   0.483959E+01
   0.231000E+04   0.131531E-03   0.318724E-03   0.387729E+00   0.483959E+01
   0.232000E+04   0.132476E-03   0.320887E-03   0.387728E+00   0.483959E+01
   0.233000E+04   0.133412E-03   0.323032E-03   0.387734E+00   0.483959E+01
   0.234000E+04   0.134339E-03   0.325154E-03   0.387741E+00   0.483959E+01
   0.235000E+04   0.135256E-03   0.327255E-03   0.387738E+00   0.483959E+01
   0.236000E+04   0.136166E-03   0.329342E-03   0.387725E+00   0.483959E+01
   0.237000E+04   0.137071E-03   0.331415E-03   0.387726E+00   0.483959E+01
   0.238000E+04   0.137968E-03   0.333471E-03   0.387742E+00   0.483959E+01
   0.239000E+04   0.138856E-03   0.335506E-03   0.387762E+00   0.483959E+01
   0.240000E+04   0.139737E-03   0.337527E-03   0.387762E+00   0.483959E+01
   0.241000E+04   0.140611E-03   0.339531E-03   0.387750E+00   0.483959E+01
   0.242000E+04   0.141476E-03   0.341514E-03   0.387745E+00   0.483959E+01
   0.243000E+04   0.142331E-03   0.343473E-03   0.387751E+00   0.483959E+01
   0.244000E+04   0.143178E-03   0.345415E-03   0.387759E+00   0.483959E+01
   0.245000E+04   0.144021E-03   0.347349E-03   0.387761E+00   0.483959E+01
   0.246000E+04   0.144857E-03   0.349267E-03   0.387767E+00   0.483959E+01
   0.247000E+04   0.145683E-03   0.351163E-03   0.387775E+00   0.483959E+01
   0.248000E+04   0.146499E-03   0.353033E-03   0.387781E+00   0.483959E+01
   0.249000E+04   0.147307E-03   0.354886E-03   0.387768E+00   0.483959E+01
   0.250000E+04   0.148109E-03   0.356724E-03   0.387756E+00   0.483959E+01
   0.251000E+04   0.148903E-03   0.358545E-03   0.387765E+00   0.483959E+01
   0.252000E+04   0.149688E-03   0.360346E-03   0.387788E+00   0.483959E+01
   0.253000E+04   0.150466E-03   0.362130E-03   0.387798E+00   0.483959E+01
   0.254000E+04   0.151238E-03   0.363900E-03   0.387790E+00   0.483959E+01
   0.255000E+04   0.152001E-03   0.365650E-03   0.387784E+00   0.483959E+01
   0.256000E+04   0.152754E-03   0.367375E-03   0.387782E+00   0.483959E+01
   0.257000E+04   0.153497E-03   0.369076E-03   0.387788E+00   0.483959E+01
   0.258000E+04   0.154234E-03   0.370766E-03   0.387789E+00   0.483959E+01
   0.259000E+04   0.154967E-03   0.372446E-03   0.387793E+00   0.483959E+01
   0.260000E+04   0.155692E-03   0.374108E-03   0.387804E+00   0.483959E+01
   0.261000E+04   0.156407E-03   0.375745E-03   0.387817E+00   0.483959E+01
   0.262000E+04   0.157113E-03   0.377362E-03   0.387812E+00   0.483959E+01
   0.263000E+04   0.157813E-03   0.378963E-03   0.387793E+00   0.483959E+01
   0.264000E+04   0.158504E-03   0.380545E-03   0.387790E+00   0.483959E+01
   0.265000E+04   0.159188E-03   0.382109E-03   0.387803E+00   0.483959E+01
   0.266000E+04   0.159864E-03   0.383655E-03   0.387823E+00   0.483959E+01
   0.267000E+04   0.160535E-03   0.385189E-03   0.387824E+00   0.483959E+01
   0.268000E+04   0.161199E-03   0.386709E-03   0.387818E+00   0.483959E+01
   0.269000E+04   0.161855E-03   0.388207E-03   0.387816E+00   0.483959E+01
   0.270000E+04   0.162499E-03   0.389678E-03   0.387820E+00   0.483959E+01
   0.271000E+04   0.163136E-03   0.391132E-03   0.387817E+00   0.483959E+01
   0.272000E+04   0.163770E-03   0.392577E-03   0.387814E+00   0.483959E+01
   0.273000E+04   0.164397E-03   0.394010E-03   0.387825E+00   0.483959E+01
   0.274000E+04   0.165017E-03   0.395423E-03   0.387839E+00   0.483959E+01
   0.275000E+04   0.165628E-03   0.396815E-03   0.387847E+00   0.483959E+01
   0.276000E+04   0.166233E-03   0.398193E-03   0.387834E+00   0.483959E+01
   0.277000E+04   0.166831E-03   0.399554E-03   0.387820E+00   0.483959E+01
   0.278000E+04   0.167422E-03   0.400897E-03   0.387821E+00   0.483959E+01
   0.279000E+04   0.168004E-03   0.402220E-03   0.387841E+00   0.483959E+01
   0.280000E+04   0.168582E-03   0.403533E-03   0.387850E+00   0.483959E+01
   0.281000E+04   0.169156E-03   0.404837E-03   0.387846E+00   0.483959E+01
   0.282000E+04   0.169723E-03   0.406123E-03   0.387848E+00   0.483959E+01
   0.283000E+04   0.170280E-03   0.407386E-03   0.387850E+00   0.483959E+01
   0.284000E+04   0.170829E-03   0.408628E-03   0.387848E+00   0.483959E+01
   0.285000E+04   0.171374E-03   0.409861E-03   0.387839E+00   0.483959E+01
   0.286000E+04   0.171916E-03   0.411086E-03   0.387840E+00   0.483959E+01
   0.287000E+04   0.172451E-03   0.412296E-03   0.387854E+00   0.483959E+01
   0.288000E+04   0.172979E-03   0.413487E-03   0.387871E+00   0.483959E+01
   0.289000E+04   0.173500E-03   0.414663E-03   0.387869E+00   0.483959E+01
   0.290000E+04   0.174017E-03   0.415827E-03   0.387852E+00   0.483959E+01
   0.291000E+04   0.174527E-03   0.416973E-03   0.387846E+00   0.483959E+01
   0.292000E+04   0.175029E-03   0.418102E-03   0.387854E+00   0.483959E+01
   0.293000E+04   0.175526E-03   0.419218E-03   0.387868E+00   0.483959E+01
   0.294000E+04   0.176021E-03   0.420330E-03   0.387869E+00   0.483959E+01
   0.295000E+04   0.176512E-03   0.421431E-03   0.387869E+00   0.483959E+01
   0.296000E+04   0.176996E-03   0.422515E-03   0.387872E+00   0.483959E+01
   0.297000E+04   0.177470E-03   0.423575E-03   0.387877E+00   0.483959E+01
   0.298000E+04   0.177939E-03   0.424623E-03   0.387867E+00   0.483959E+01
   0.299000E+04   0.178405E-03   0.425664E-03   0.387856E+00   0.483959E+01
   0.300000E+04   0.178868E-03   0.426696E-03   0.387867E+00   0.483959E+01
   0.301000E+04   0.179325E-03   0.427714E-03   0.387886E+00   0.483959E+01
   0.302000E+04   0.179776E-03   0.428719E-03   0.387895E+00   0.483959E+01
   0.303000E+04   0.180224E-03   0.429715E-03   0.387884E+00   0.483959E+01
   0.304000E+04   0.180666E-03   0.430698E-03   0.387871E+00   0.483959E+01
   0.305000E+04   0.181102E-03   0.431664E-03   0.387867E+00   0.483959E+01
   0.306000E+04   0.181531E-03   0.432613E-03   0.387878E+00   0.483959E+01
   0.307000E+04   0.181957E-03   0.433557E-03   0.387885E+00   0.483959E+01
   0.308000E+04   0.182383E-03   0.434500E-03   0.387886E+00   0.483959E+01
   0.309000E+04   0.182803E-03   0.435430E-03   0.387893E+00   0.483959E+01
   0.310000E+04   0.183216E-03   0.436343E-03   0.387901E+00   0.483959E+01
   0.311000E+04   0.183623E-03   0.437240E-03   0.387896E+00   0.483959E+01
   0.312000E+04   0.184027E-03   0.438129E-03   0.387878E+00   0.483959E+01
   0.313000E+04   0.184429E-03   0.439012E-03   0.387874E+00   0.483959E+01
   0.314000E+04   0.184826E-03   0.439886E-03   0.387888E+00   0.483959E+01
   0.315000E+04   0.185218E-03   0.440747E-03   0.387908E+00   0.483959E+01
   0.316000E+04   0.185607E-03   0.441602E-03   0.387909E+00   0.483959E+01
   0.317000E+04   0.185993E-03   0.442452E-03   0.387897E+00   0.483959E+01
   0.318000E+04   0.186374E-03   0.443286E-03   0.387892E+00   0.483959E+01
   0.319000E+04   0.186747E-03   0.444103E-03   0.387894E+00   0.483959E+01
   0.320000E+04   0.187117E-03   0.444911E-03   0.387897E+00   0.483959E+01
   0.321000E+04   0.187487E-03   0.445722E-03   0.387896E+00   0.483959E+01
   0.322000E+04   0.187855E-03   0.446527E-03   0.387901E+00   0.483959E+01
   0.323000E+04   0.188218E-03   0.447321E-03   0.387911E+00   0.483959E+01
   0.324000E+04   0.188574E-03   0.448099E-03   0.387919E+00   0.483959E+01
   0.325000E+04   0.188927E-03   0.448867E-03   0.387907E+00   0.483959E+01
   0.326000E+04   0.189278E-03   0.449632E-03   0.387891E+00   0.483959E+01
   0.327000E+04   0.189625E-03   0.450388E-03   0.387895E+00   0.483959E+01
   0.328000E+04   0.189968E-03   0.451134E-03   0.387914E+00   0.483959E+01
   0.329000E+04   0.190308E-03   0.451876E-03   0.387923E+00   0.483959E+01
   0.330000E+04   0.190647E-03   0.452616E-03   0.387915E+00   0.483959E+01
   0.331000E+04   0.190983E-03   0.453347E-03   0.387910E+00   0.483959E+01
   0.332000E+04   0.191312E-03   0.454062E-03   0.387908E+00   0.483959E+01
   0.333000E+04   0.191636E-03   0.454763E-03   0.387912E+00   0.483959E+01
   0.334000E+04   0.191958E-03   0.455464E-03   0.387909E+00   0.483959E+01
   0.335000E+04   0.192281E-03   0.456166E-03   0.387910E+00   0.483959E+01
   0.336000E+04   0.192601E-03   0.456862E-03   0.387920E+00   0.483959E+01
   0.337000E+04   0.192915E-03   0.457544E-03   0.387933E+00   0.483959E+01
   0.338000E+04   0.193226E-03   0.458217E-03   0.387930E+00   0.483959E+01
   0.339000E+04   0.193534E-03   0.458886E-03   0.387910E+00   0.483959E+01
   0.340000E+04   0.193839E-03   0.459546E-03   0.387904E+00   0.483959E+01
   0.341000E+04   0.194140E-03   0.460198E-03   0.387914E+00   0.483959E+01
   0.342000E+04   0.194439E-03   0.460845E-03   0.387933E+00   0.483959E+01
   0.343000E+04   0.194737E-03   0.461491E-03   0.387934E+00   0.483959E+01
   0.344000E+04   0.195034E-03   0.462135E-03   0.387927E+00   0.483959E+01
   0.345000E+04   0.195326E-03   0.462767E-03   0.387926E+00   0.483959E+01
   0.346000E+04   0.195611E-03   0.463382E-03   0.387928E+00   0.483959E+01
   0.347000E+04   0.195893E-03   0.463991E-03   0.387922E+00   0.483959E+01
   0.348000E+04   0.196176E-03   0.464602E-03   0.387915E+00   0.483959E+01
   0.349000E+04   0.196457E-03   0.465211E-03   0.387926E+00   0.483959E+01
   0.350000E+04   0.196735E-03   0.465812E-03   0.387941E+00   0.483959E+01
   0.351000E+04   0.197009E-03   0.466403E-03   0.387950E+00   0.483959E+01
   0.352000E+04   0.197281E-03   0.466990E-03   0.387938E+00   0.483959E+01
   0.353000E+04   0.197550E-03   0.467571E-03   0.387921E+00   0.483959E+01
   0.354000E+04   0.197816E-03   0.468142E-03   0.387919E+00   0.483959E+01
   0.355000E+04   0.198077E-03   0.468703E-03   0.387935E+00   0.483959E+01
   0.356000E+04   0.198337E-03   0.469264E-03   0.387944E+00   0.483959E+01
   0.357000E+04   0.198599E-03   0.469829E-03   0.387940E+00   0.483959E+01
   0.358000E+04   0.198858E-03   0.470387E-03   0.387942E+00   0.483959E+01
   0.359000E+04   0.199111E-03   0.470932E-03   0.387945E+00   0.483959E+01
   0.360000E+04   0.199359E-03   0.471463E-03   0.387942E+00   0.483959E+01
   0.361000E+04   0.199606E-03   0.471994E-03   0.387929E+00   0.483959E+01
   0.362000E+04   0.199853E-03   0.472525E-03   0.387927E+00   0.483959E+01
   0.363000E+04   0.200099E-03   0.473052E-03   0.387941E+00   0.483959E+01
   0.364000E+04   0.200340E-03   0.473569E-03   0.387960E+00   0.483959E+01
   0.365000E+04   0.200579E-03   0.474083E-03   0.387959E+00   0.483959E+01
   0.366000E+04   0.200818E-03   0.474595E-03   0.387943E+00   0.483959E+01
   0.367000E+04   0.201053E-03   0.475097E-03   0.387935E+00   0.483959E+01
   0.368000E+04   0.201283E-03   0.475589E-03   0.387939E+00   0.483959E+01
   0.369000E+04   0.201511E-03   0.476076E-03   0.387949E+00   0.483959E+01
   0.370000E+04   0.201741E-03   0.476568E-03   0.387950E+00   0.483959E+01
   0.371000E+04   0.201971E-03   0.477061E-03   0.387951E+00   0.483959E+01
   0.372000E+04   0.202197E-03   0.477544E-03   0.387956E+00   0.483959E+01
   0.373000E+04   0.202417E-03   0.478013E-03   0.387962E+00   0.483959E+01
   0.374000E+04   0.202635E-03   0.478477E-03   0.387950E+00   0.483959E+01
   0.375000E+04   0.202853E-03   0.478943E-03   0.387936E+00   0.483959E+01
   0.376000E+04   0.203070E-03   0.479407E-03   0.387944E+00   0.483959E+01
   0.377000E+04   0.203285E-03   0.479865E-03   0.387963E+00   0.483959E+01
   0.378000E+04   0.203497E-03   0.480318E-03   0.387973E+00   0.483959E+01
   0.379000E+04   0.203710E-03   0.480772E-03   0.387963E+00   0.483959E+01
   0.380000E+04   0.203921E-03   0.481221E-03   0.387952E+00   0.483959E+01
   0.381000E+04   0.204127E-03   0.481660E-03   0.387948E+00   0.483959E+01
   0.382000E+04   0.204330E-03   0.482089E-03   0.387956E+00   0.483959E+01
   0.383000E+04   0.204533E-03   0.482521E-03   0.387959E+00   0.483959E+01
   0.384000E+04   0.204738E-03   0.482960E-03   0.387959E+00   0.483959E+01
   0.385000E+04   0.204942E-03   0.483396E-03   0.387966E+00   0.483959E+01
   0.386000E+04   0.205142E-03   0.483820E-03   0.387975E+00   0.483959E+01
   0.387000E+04   0.205338E-03   0.484236E-03   0.387971E+00   0.483959E+01
   0.388000E+04   0.205533E-03   0.484651E-03   0.387952E+00   0.483959E+01
   0.389000E+04   0.205728E-03   0.485066E-03   0.387946E+00   0.483959E+01
   0.390000E+04   0.205922E-03   0.485477E-03   0.387959E+00   0.483959E+01
   0.391000E+04   0.206113E-03   0.485884E-03   0.387980E+00   0.483959E+01
   0.392000E+04   0.206305E-03   0.486294E-03   0.387981E+00   0.483959E+01
   0.393000E+04   0.206497E-03   0.486704E-03   0.387970E+00   0.483959E+01