title="breakthrough data set at     5 wells"
variables="time(days)","cavg","cpk","upk","zswi"
zone i=     1295
   0.100000E+02   0.505563E-10   0.700494E-10   0.446528E+00   0.483300E+01
   0.200000E+02   0.132526E-09   0.186392E-09   0.373869E+00   0.481612E+01
   0.300000E+02   0.281675E-09   0.398692E-09   0.373091E+00   0.481612E+01
   0.400000E+02   0.532934E-09   0.756537E-09   0.372711E+00   0.481612E+01
   0.500000E+02   0.933667E-09   0.132683E-08   0.372415E+00   0.481612E+01
   0.600000E+02   0.154635E-08   0.219730E-08   0.372181E+00   0.481612E+01
   0.700000E+02   0.245168E-08   0.348046E-08   0.371970E+00   0.481612E+01
   0.800000E+02   0.374803E-08   0.531225E-08   0.371841E+00   0.481612E+01
   0.900000E+02   0.555444E-08   0.785567E-08   0.371736E+00   0.481612E+01
   0.100000E+03   0.800998E-08   0.112991E-07   0.371652E+00   0.481612E+01
   0.110000E+03   0.112727E-07   0.158541E-07   0.371586E+00   0.481612E+01
   0.120000E+03   0.155175E-07   0.217517E-07   0.371534E+00   0.481612E+01
   0.130000E+03   0.209140E-07   0.292116E-07   0.371546E+00   0.481612E+01
   0.140000E+03   0.276774E-07   0.385108E-07   0.371495E+00   0.481612E+01
   0.150000E+03   0.360148E-07   0.501429E-07   0.371458E+00   0.481612E+01
   0.160000E+03   0.461363E-07   0.645957E-07   0.371432E+00   0.481612E+01
   0.170000E+03   0.582494E-07   0.819476E-07   0.371416E+00   0.481612E+01
   0.180000E+03   0.725547E-07   0.102486E-06   0.371407E+00   0.481612E+01
   0.190000E+03   0.892408E-07   0.126477E-06   0.371405E+00   0.481612E+01
   0.200000E+03   0.108481E-06   0.154156E-06   0.371407E+00   0.481612E+01
   0.210000E+03   0.130430E-06   0.185723E-06   0.371413E+00   0.481612E+01
   0.220000E+03   0.155219E-06   0.221343E-06   0.371422E+00   0.481612E+01
   0.230000E+03   0.182960E-06   0.261136E-06   0.371434E+00   0.481612E+01
   0.240000E+03   0.213738E-06   0.305181E-06   0.371448E+00   0.481612E+01
   0.250000E+03   0.247616E-06   0.353516E-06   0.371463E+00   0.481612E+01
   0.260000E+03   0.284634E-06   0.406141E-06   0.371481E+00   0.481612E+01
   0.270000E+03   0.324812E-06   0.463016E-06   0.371499E+00   0.481612E+01
   0.280000E+03   0.368151E-06   0.524074E-06   0.371519E+00   0.481612E+01
   0.290000E+03   0.414636E-06   0.589219E-06   0.371539E+00   0.481612E+01
   0.300000E+03   0.464237E-06   0.658336E-06   0.371560E+00   0.481612E+01
   0.310000E+03   0.516917E-06   0.731295E-06   0.371581E+00   0.481612E+01
   0.320000E+03   0.572632E-06   0.807956E-06   0.371602E+00   0.481612E+01
   0.330000E+03   0.631332E-06   0.888178E-06   0.371624E+00   0.481612E+01
   0.340000E+03   0.692969E-06   0.971822E-06   0.371645E+00   0.481612E+01
   0.350000E+03   0.757494E-06   0.105876E-05   0.371667E+00   0.481612E+01
   0.360000E+03   0.824862E-06   0.114886E-05   0.371688E+00   0.481612E+01
   0.370000E+03   0.895036E-06   0.124203E-05   0.371709E+00   0.481612E+01
   0.380000E+03   0.967982E-06   0.133817E-05   0.371730E+00   0.481612E+01
   0.390000E+03   0.104367E-05   0.143721E-05   0.371750E+00   0.481612E+01
   0.400000E+03   0.112210E-05   0.153909E-05   0.371770E+00   0.481612E+01
   0.410000E+03   0.120324E-05   0.164380E-05   0.371790E+00   0.481612E+01
   0.420000E+03   0.128711E-05   0.175131E-05   0.371810E+00   0.481612E+01
   0.430000E+03   0.137370E-05   0.186163E-05   0.371829E+00   0.481612E+01
   0.440000E+03   0.146304E-05   0.197477E-05   0.371848E+00   0.481612E+01
   0.450000E+03   0.155514E-05   0.209079E-05   0.371866E+00   0.481612E+01
   0.460000E+03   0.165004E-05   0.220973E-05   0.371884E+00   0.481612E+01
   0.470000E+03   0.174776E-05   0.233167E-05   0.371902E+00   0.481612E+01
   0.480000E+03   0.184835E-05   0.245667E-05   0.371919E+00   0.481612E+01
   0.490000E+03   0.195186E-05   0.258483E-05   0.371936E+00   0.481612E+01
   0.500000E+03   0.205832E-05   0.271626E-05   0.371953E+00   0.481612E+01
   0.510000E+03   0.216780E-05   0.285105E-05   0.371969E+00   0.481612E+01
   0.520000E+03   0.228035E-05   0.298931E-05   0.371985E+00   0.481612E+01
   0.530000E+03   0.239602E-05   0.313118E-05   0.372001E+00   0.481612E+01
   0.540000E+03   0.251487E-05   0.327676E-05   0.372017E+00   0.481612E+01
   0.550000E+03   0.263696E-05   0.342618E-05   0.372032E+00   0.481612E+01
   0.560000E+03   0.276235E-05   0.357957E-05   0.372047E+00   0.481612E+01
   0.570000E+03   0.289110E-05   0.373704E-05   0.372062E+00   0.481612E+01
   0.580000E+03   0.302327E-05   0.389873E-05   0.372076E+00   0.481612E+01
   0.590000E+03   0.315892E-05   0.406475E-05   0.372090E+00   0.481612E+01
   0.600000E+03   0.329810E-05   0.423521E-05   0.372104E+00   0.481612E+01
   0.610000E+03   0.344087E-05   0.441024E-05   0.372117E+00   0.481612E+01
   0.620000E+03   0.358728E-05   0.458993E-05   0.372130E+00   0.481612E+01
   0.630000E+03   0.373739E-05   0.477440E-05   0.372142E+00   0.481612E+01
   0.640000E+03   0.389124E-05   0.496375E-05   0.372154E+00   0.481612E+01
   0.650000E+03   0.404888E-05   0.515806E-05   0.372165E+00   0.481612E+01
   0.660000E+03   0.421036E-05   0.535744E-05   0.372177E+00   0.481612E+01
   0.670000E+03   0.437573E-05   0.556197E-05   0.372188E+00   0.481612E+01
   0.680000E+03   0.454502E-05   0.577174E-05   0.372198E+00   0.481612E+01
   0.690000E+03   0.471829E-05   0.598683E-05   0.372209E+00   0.481612E+01
   0.700000E+03   0.489557E-05   0.620732E-05   0.372219E+00   0.481612E+01
   0.710000E+03   0.507690E-05   0.643328E-05   0.372229E+00   0.481612E+01
   0.720000E+03   0.526233E-05   0.666480E-05   0.372238E+00   0.481612E+01
   0.730000E+03   0.545188E-05   0.690194E-05   0.372248E+00   0.481612E+01
   0.740000E+03   0.564560E-05   0.714476E-05   0.372257E+00   0.481612E+01
   0.750000E+03   0.584352E-05   0.739333E-05   0.372267E+00   0.481612E+01
   0.760000E+03   0.604567E-05   0.764771E-05   0.372276E+00   0.481612E+01
   0.770000E+03   0.625209E-05   0.790796E-05   0.372285E+00   0.481612E+01
   0.780000E+03   0.646280E-05   0.817412E-05   0.372295E+00   0.481612E+01
   0.790000E+03   0.667783E-05   0.844626E-05   0.372304E+00   0.481612E+01
   0.800000E+03   0.689721E-05   0.872441E-05   0.372313E+00   0.481612E+01
   0.810000E+03   0.712096E-05   0.900861E-05   0.372322E+00   0.481612E+01
   0.820000E+03   0.734910E-05   0.929890E-05   0.372331E+00   0.481612E+01
   0.830000E+03   0.758165E-05   0.959530E-05   0.372340E+00   0.481612E+01
   0.840000E+03   0.781863E-05   0.989785E-05   0.372349E+00   0.481612E+01
   0.850000E+03   0.806004E-05   0.102066E-04   0.372358E+00   0.481612E+01
   0.860000E+03   0.830590E-05   0.105214E-04   0.372367E+00   0.481612E+01
   0.870000E+03   0.855621E-05   0.108425E-04   0.372376E+00   0.481612E+01
   0.880000E+03   0.881097E-05   0.111698E-04   0.372384E+00   0.481612E+01
   0.890000E+03   0.907018E-05   0.115032E-04   0.372393E+00   0.481612E+01
   0.900000E+03   0.933383E-05   0.118428E-04   0.372401E+00   0.481612E+01
   0.910000E+03   0.960191E-05   0.121885E-04   0.372409E+00   0.481612E+01
   0.920000E+03   0.987440E-05   0.125404E-04   0.372417E+00   0.481612E+01
   0.930000E+03   0.101513E-04   0.128984E-04   0.372424E+00   0.481612E+01
   0.940000E+03   0.104325E-04   0.132624E-04   0.372432E+00   0.481612E+01
   0.950000E+03   0.107181E-04   0.136325E-04   0.372439E+00   0.481612E+01
   0.960000E+03   0.110080E-04   0.140085E-04   0.372446E+00   0.481612E+01
   0.970000E+03   0.113022E-04   0.143905E-04   0.372453E+00   0.481612E+01
   0.980000E+03   0.116006E-04   0.147783E-04   0.372460E+00   0.481612E+01
   0.990000E+03   0.119032E-04   0.151719E-04   0.372466E+00   0.481612E+01
   0.100000E+04   0.122098E-04   0.155712E-04   0.372473E+00   0.481612E+01
   0.101000E+04   0.125206E-04   0.159761E-04   0.372479E+00   0.481612E+01
   0.102000E+04   0.128353E-04   0.163865E-04   0.372485E+00   0.481612E+01
   0.103000E+04   0.131539E-04   0.168023E-04   0.372491E+00   0.481612E+01
   0.104000E+04   0.134764E-04   0.172234E-04   0.372497E+00   0.481612E+01
   0.105000E+04   0.138026E-04   0.176497E-04   0.372503E+00   0.481612E+01
   0.106000E+04   0.141326E-04   0.181820E-04   0.372509E+00   0.481612E+01
   0.107000E+04   0.144661E-04   0.187557E-04   0.372514E+00   0.481612E+01
   0.108000E+04   0.148031E-04   0.193397E-04   0.372520E+00   0.481612E+01
   0.109000E+04   0.151436E-04   0.199341E-04   0.372525E+00   0.481612E+01
   0.110000E+04   0.154873E-04   0.205384E-04   0.372531E+00   0.481612E+01
   0.111000E+04   0.158343E-04   0.211527E-04   0.372536E+00   0.481612E+01
   0.112000E+04   0.161843E-04   0.217765E-04   0.372541E+00   0.481612E+01
   0.113000E+04   0.165374E-04   0.224098E-04   0.372546E+00   0.481612E+01
   0.114000E+04   0.168934E-04   0.230523E-04   0.372552E+00   0.481612E+01
   0.115000E+04   0.172522E-04   0.237039E-04   0.372557E+00   0.481612E+01
   0.116000E+04   0.176137E-04   0.243642E-04   0.372562E+00   0.481612E+01
   0.117000E+04   0.179778E-04   0.250331E-04   0.372567E+00   0.481612E+01
   0.118000E+04   0.183444E-04   0.257104E-04   0.372572E+00   0.481612E+01
   0.119000E+04   0.187135E-04   0.263959E-04   0.372577E+00   0.481612E+01
   0.120000E+04   0.190849E-04   0.270894E-04   0.372582E+00   0.481612E+01
   0.121000E+04   0.194586E-04   0.277907E-04   0.372587E+00   0.481612E+01
   0.122000E+04   0.198346E-04   0.284997E-04   0.372592E+00   0.481612E+01
   0.123000E+04   0.202126E-04   0.292161E-04   0.372597E+00   0.481612E+01
   0.124000E+04   0.205928E-04   0.299399E-04   0.372601E+00   0.481612E+01
   0.125000E+04   0.209750E-04   0.306709E-04   0.372606E+00   0.481612E+01
   0.126000E+04   0.213592E-04   0.314090E-04   0.372611E+00   0.481612E+01
   0.127000E+04   0.217453E-04   0.321540E-04   0.372615E+00   0.481612E+01
   0.128000E+04   0.221333E-04   0.329058E-04   0.372620E+00   0.481612E+01
   0.129000E+04   0.225232E-04   0.336644E-04   0.372624E+00   0.481612E+01
   0.130000E+04   0.229148E-04   0.344296E-04   0.372628E+00   0.481612E+01
   0.131000E+04   0.233083E-04   0.352013E-04   0.372632E+00   0.481612E+01
   0.132000E+04   0.237034E-04   0.359795E-04   0.372637E+00   0.481612E+01
   0.133000E+04   0.241003E-04   0.367640E-04   0.372641E+00   0.481612E+01
   0.134000E+04   0.244988E-04   0.375547E-04   0.372644E+00   0.481612E+01
   0.135000E+04   0.248989E-04   0.383516E-04   0.372648E+00   0.481612E+01
   0.136000E+04   0.253005E-04   0.391545E-04   0.372652E+00   0.481612E+01
   0.137000E+04   0.257038E-04   0.399634E-04   0.372655E+00   0.481612E+01
   0.138000E+04   0.261085E-04   0.407782E-04   0.372659E+00   0.481612E+01
   0.139000E+04   0.265146E-04   0.415987E-04   0.372662E+00   0.481612E+01
   0.140000E+04   0.269221E-04   0.424249E-04   0.372665E+00   0.481612E+01
   0.141000E+04   0.273310E-04   0.432567E-04   0.372668E+00   0.481612E+01
   0.142000E+04   0.277412E-04   0.440938E-04   0.372671E+00   0.481612E+01
   0.143000E+04   0.281526E-04   0.449363E-04   0.372674E+00   0.481612E+01
   0.144000E+04   0.285652E-04   0.457840E-04   0.372677E+00   0.481612E+01
   0.145000E+04   0.289790E-04   0.466367E-04   0.372680E+00   0.481612E+01
   0.146000E+04   0.293938E-04   0.474943E-04   0.372683E+00   0.481612E+01
   0.147000E+04   0.298097E-04   0.483567E-04   0.372685E+00   0.481612E+01
   0.148000E+04   0.302265E-04   0.492237E-04   0.372688E+00   0.481612E+01
   0.149000E+04   0.306442E-04   0.500951E-04   0.372690E+00   0.481612E+01
   0.150000E+04   0.310627E-04   0.509708E-04   0.372693E+00   0.481612E+01
   0.151000E+04   0.314819E-04   0.518506E-04   0.372695E+00   0.481612E+01
   0.152000E+04   0.319019E-04   0.527343E-04   0.372698E+00   0.481612E+01
   0.153000E+04   0.323225E-04   0.536218E-04   0.372700E+00   0.481612E+01
   0.154000E+04   0.327436E-04   0.545129E-04   0.372703E+00   0.481612E+01
   0.155000E+04   0.331653E-04   0.554073E-04   0.372705E+00   0.481612E+01
   0.156000E+04   0.335874E-04   0.563049E-04   0.372707E+00   0.481612E+01
   0.157000E+04   0.340098E-04   0.572055E-04   0.372709E+00   0.481612E+01
   0.158000E+04   0.344326E-04   0.581090E-04   0.372712E+00   0.481612E+01
   0.159000E+04   0.348555E-04   0.590151E-04   0.372714E+00   0.481612E+01
   0.160000E+04   0.352787E-04   0.599236E-04   0.372716E+00   0.481612E+01
   0.161000E+04   0.357019E-04   0.608344E-04   0.372718E+00   0.481612E+01
   0.162000E+04   0.361253E-04   0.617472E-04   0.372720E+00   0.481612E+01
   0.163000E+04   0.365486E-04   0.626620E-04   0.372722E+00   0.481612E+01
   0.164000E+04   0.369719E-04   0.635785E-04   0.372724E+00   0.481612E+01
   0.165000E+04   0.373951E-04   0.644966E-04   0.372726E+00   0.481612E+01
   0.166000E+04   0.378181E-04   0.654162E-04   0.372728E+00   0.481612E+01
   0.167000E+04   0.382410E-04   0.663370E-04   0.372730E+00   0.481612E+01
   0.168000E+04   0.386636E-04   0.672590E-04   0.372732E+00   0.481612E+01
   0.169000E+04   0.390861E-04   0.681820E-04   0.372734E+00   0.481612E+01
   0.170000E+04   0.395082E-04   0.691060E-04   0.372736E+00   0.481612E+01
   0.171000E+04   0.399300E-04   0.700307E-04   0.372737E+00   0.481612E+01
   0.172000E+04   0.403515E-04   0.709562E-04   0.372739E+00   0.481612E+01
   0.173000E+04   0.407727E-04   0.718822E-04   0.372741E+00   0.481612E+01
   0.174000E+04   0.411935E-04   0.728088E-04   0.372743E+00   0.481612E+01
   0.175000E+04   0.416139E-04   0.737359E-04   0.372744E+00   0.481612E+01
   0.176000E+04   0.420339E-04   0.746634E-04   0.372746E+00   0.481612E+01
   0.177000E+04   0.424535E-04   0.755913E-04   0.372748E+00   0.481612E+01
   0.178000E+04   0.428728E-04   0.765194E-04   0.372750E+00   0.481612E+01
   0.179000E+04   0.432915E-04   0.774477E-04   0.372751E+00   0.481612E+01
   0.180000E+04   0.437099E-04   0.783763E-04   0.372753E+00   0.481612E+01
   0.181000E+04   0.441278E-04   0.793051E-04   0.372755E+00   0.481612E+01
   0.182000E+04   0.445453E-04   0.802339E-04   0.372756E+00   0.481612E+01
   0.183000E+04   0.449623E-04   0.811629E-04   0.372758E+00   0.481612E+01
   0.184000E+04   0.453789E-04   0.820920E-04   0.372760E+00   0.481612E+01
   0.185000E+04   0.457950E-04   0.830211E-04   0.372762E+00   0.481612E+01
   0.186000E+04   0.462106E-04   0.839502E-04   0.372763E+00   0.481612E+01
   0.187000E+04   0.466258E-04   0.848793E-04   0.372765E+00   0.481612E+01
   0.188000E+04   0.470404E-04   0.858083E-04   0.372767E+00   0.481612E+01
   0.189000E+04   0.474546E-04   0.867373E-04   0.372769E+00   0.481612E+01
   0.190000E+04   0.478683E-04   0.876663E-04   0.372771E+00   0.481612E+01
   0.191000E+04   0.482815E-04   0.885952E-04   0.372773E+00   0.481612E+01
   0.192000E+04   0.486942E-04   0.895239E-04   0.372776E+00   0.481612E+01
   0.193000E+04   0.491063E-04   0.904525E-04   0.372778E+00   0.481612E+01
   0.194000E+04   0.495180E-04   0.913811E-04   0.372782E+00   0.481612E+01
   0.195000E+04   0.499291E-04   0.923094E-04   0.372784E+00   0.481612E+01
   0.196000E+04   0.503395E-04   0.932374E-04   0.372787E+00   0.481612E+01
   0.197000E+04   0.507494E-04   0.941651E-04   0.372791E+00   0.481612E+01
   0.198000E+04   0.511586E-04   0.950925E-04   0.372794E+00   0.481612E+01
   0.199000E+04   0.515672E-04   0.960196E-04   0.372798E+00   0.481612E+01
   0.200000E+04   0.519743E-04   0.969446E-04   0.372802E+00   0.481612E+01
   0.201000E+04   0.523811E-04   0.978700E-04   0.372803E+00   0.481612E+01
   0.202000E+04   0.527871E-04   0.987948E-04   0.372805E+00   0.481612E+01
   0.203000E+04   0.531923E-04   0.997187E-04   0.372807E+00   0.481612E+01
   0.204000E+04   0.535964E-04   0.100641E-03   0.372807E+00   0.481612E+01
   0.205000E+04   0.539996E-04   0.101563E-03   0.372810E+00   0.481612E+01
   0.206000E+04   0.544019E-04   0.102484E-03   0.372813E+00   0.481612E+01
   0.207000E+04   0.548031E-04   0.103404E-03   0.372815E+00   0.481612E+01
   0.208000E+04   0.552034E-04   0.104322E-03   0.372816E+00   0.481612E+01
   0.209000E+04   0.556025E-04   0.105239E-03   0.372817E+00   0.481612E+01
   0.210000E+04   0.560005E-04   0.106155E-03   0.372819E+00   0.481612E+01
   0.211000E+04   0.563974E-04   0.107069E-03   0.372822E+00   0.481612E+01
   0.212000E+04   0.567934E-04   0.107982E-03   0.372824E+00   0.481612E+01
   0.213000E+04   0.571881E-04   0.108893E-03   0.372825E+00   0.481612E+01
   0.214000E+04   0.575817E-04   0.109802E-03   0.372825E+00   0.481612E+01
   0.215000E+04   0.579741E-04   0.110710E-03   0.372827E+00   0.481612E+01
   0.216000E+04   0.583655E-04   0.111616E-03   0.372830E+00   0.481612E+01
   0.217000E+04   0.587558E-04   0.112521E-03   0.372832E+00   0.481612E+01
   0.218000E+04   0.591450E-04   0.113423E-03   0.372833E+00   0.481612E+01
   0.219000E+04   0.595329E-04   0.114324E-03   0.372833E+00   0.481612E+01
   0.220000E+04   0.599196E-04   0.115223E-03   0.372834E+00   0.481612E+01
   0.221000E+04   0.603053E-04   0.116120E-03   0.372838E+00   0.481612E+01
   0.222000E+04   0.606898E-04   0.117015E-03   0.372840E+00   0.481612E+01
   0.223000E+04   0.610732E-04   0.117908E-03   0.372841E+00   0.481612E+01
   0.224000E+04   0.614554E-04   0.118799E-03   0.372840E+00   0.481612E+01
   0.225000E+04   0.618363E-04   0.119688E-03   0.372841E+00   0.481612E+01
   0.226000E+04   0.622161E-04   0.120575E-03   0.372844E+00   0.481612E+01
   0.227000E+04   0.625947E-04   0.121460E-03   0.372846E+00   0.481612E+01
   0.228000E+04   0.629722E-04   0.122342E-03   0.372847E+00   0.481612E+01
   0.229000E+04   0.633484E-04   0.123223E-03   0.372847E+00   0.481612E+01
   0.230000E+04   0.637233E-04   0.124101E-03   0.372847E+00   0.481612E+01
   0.231000E+04   0.640971E-04   0.124977E-03   0.372850E+00   0.481612E+01
   0.232000E+04   0.644697E-04   0.125851E-03   0.372851E+00   0.481612E+01
   0.233000E+04   0.648411E-04   0.126722E-03   0.372852E+00   0.481612E+01
   0.234000E+04   0.652113E-04   0.127591E-03   0.372853E+00   0.481612E+01
   0.235000E+04   0.655802E-04   0.128458E-03   0.372853E+00   0.481612E+01
   0.236000E+04   0.659479E-04   0.129323E-03   0.372854E+00   0.481612E+01
   0.237000E+04   0.663145E-04   0.130185E-03   0.372856E+00   0.481612E+01
   0.238000E+04   0.666799E-04   0.131045E-03   0.372857E+00   0.481612E+01
   0.239000E+04   0.670442E-04   0.131902E-03   0.372857E+00   0.481612E+01
   0.240000E+04   0.674073E-04   0.132758E-03   0.372857E+00   0.481612E+01
   0.241000E+04   0.677691E-04   0.133610E-03   0.372858E+00   0.481612E+01
   0.242000E+04   0.681298E-04   0.134461E-03   0.372859E+00   0.481612E+01
   0.243000E+04   0.684894E-04   0.135309E-03   0.372860E+00   0.481612E+01
   0.244000E+04   0.688480E-04   0.136156E-03   0.372861E+00   0.481612E+01
   0.245000E+04   0.692055E-04   0.137000E-03   0.372861E+00   0.481612E+01
   0.246000E+04   0.695618E-04   0.137841E-03   0.372861E+00   0.481612E+01
   0.247000E+04   0.699169E-04   0.138681E-03   0.372862E+00   0.481612E+01
   0.248000E+04   0.702710E-04   0.139518E-03   0.372862E+00   0.481612E+01
   0.249000E+04   0.706242E-04   0.140353E-03   0.372863E+00   0.481612E+01
   0.250000E+04   0.709763E-04   0.141187E-03   0.372863E+00   0.481612E+01
   0.251000E+04   0.713273E-04   0.142018E-03   0.372863E+00   0.481612E+01
   0.252000E+04   0.716772E-04   0.142847E-03   0.372864E+00   0.481612E+01
   0.253000E+04   0.720262E-04   0.143674E-03   0.372864E+00   0.481612E+01
   0.254000E+04   0.723743E-04   0.144500E-03   0.372865E+00   0.481612E+01
   0.255000E+04   0.727216E-04   0.145323E-03   0.372866E+00   0.481612E+01
   0.256000E+04   0.730677E-04   0.146145E-03   0.372866E+00   0.481612E+01
   0.257000E+04   0.734127E-04   0.146964E-03   0.372866E+00   0.481612E+01
   0.258000E+04   0.737570E-04   0.147782E-03   0.372867E+00   0.481612E+01
   0.259000E+04   0.741007E-04   0.148599E-03   0.372868E+00   0.481612E+01
   0.260000E+04   0.744436E-04   0.149415E-03   0.372869E+00   0.481612E+01
   0.261000E+04   0.747854E-04   0.150229E-03   0.372869E+00   0.481612E+01
   0.262000E+04   0.751262E-04   0.151040E-03   0.372869E+00   0.481612E+01
   0.263000E+04   0.754666E-04   0.151851E-03   0.372871E+00   0.481612E+01
   0.264000E+04   0.758067E-04   0.152662E-03   0.372871E+00   0.481612E+01
   0.265000E+04   0.761461E-04   0.153471E-03   0.372871E+00   0.481612E+01
   0.266000E+04   0.764846E-04   0.154279E-03   0.372871E+00   0.481612E+01
   0.267000E+04   0.768224E-04   0.155086E-03   0.372871E+00   0.481612E+01
   0.268000E+04   0.771603E-04   0.155893E-03   0.372874E+00   0.481612E+01
   0.269000E+04   0.774983E-04   0.156701E-03   0.372874E+00   0.481612E+01
   0.270000E+04   0.778358E-04   0.157509E-03   0.372873E+00   0.481612E+01
   0.271000E+04   0.781728E-04   0.158315E-03   0.372873E+00   0.481612E+01
   0.272000E+04   0.785096E-04   0.159122E-03   0.372873E+00   0.481612E+01
   0.273000E+04   0.788469E-04   0.159930E-03   0.372876E+00   0.481612E+01
   0.274000E+04   0.791848E-04   0.160741E-03   0.372876E+00   0.481612E+01
   0.275000E+04   0.795224E-04   0.161551E-03   0.372874E+00   0.481612E+01
   0.276000E+04   0.798599E-04   0.162362E-03   0.372874E+00   0.481612E+01
   0.277000E+04   0.801977E-04   0.163173E-03   0.372875E+00   0.481612E+01
   0.278000E+04   0.805365E-04   0.163988E-03   0.372878E+00   0.481612E+01
   0.279000E+04   0.808761E-04   0.164805E-03   0.372877E+00   0.481612E+01
   0.280000E+04   0.812157E-04   0.165623E-03   0.372875E+00   0.481612E+01
   0.281000E+04   0.815553E-04   0.166442E-03   0.372874E+00   0.481612E+01
   0.282000E+04   0.818956E-04   0.167263E-03   0.372876E+00   0.481612E+01
   0.283000E+04   0.822372E-04   0.168088E-03   0.372879E+00   0.481612E+01
   0.284000E+04   0.825795E-04   0.168915E-03   0.372878E+00   0.481612E+01
   0.285000E+04   0.829219E-04   0.169744E-03   0.372875E+00   0.481612E+01
   0.286000E+04   0.832644E-04   0.170573E-03   0.372875E+00   0.481612E+01
   0.287000E+04   0.836077E-04   0.171405E-03   0.372877E+00   0.481612E+01
   0.288000E+04   0.839523E-04   0.172241E-03   0.372880E+00   0.481612E+01
   0.289000E+04   0.842976E-04   0.173080E-03   0.372879E+00   0.481612E+01
   0.290000E+04   0.846427E-04   0.173919E-03   0.372876E+00   0.481612E+01
   0.291000E+04   0.849879E-04   0.174759E-03   0.372876E+00   0.481612E+01
   0.292000E+04   0.853339E-04   0.175602E-03   0.372878E+00   0.481612E+01
   0.293000E+04   0.856810E-04   0.176449E-03   0.372881E+00   0.481612E+01
   0.294000E+04   0.860285E-04   0.177298E-03   0.372880E+00   0.481612E+01
   0.295000E+04   0.863756E-04   0.178147E-03   0.372876E+00   0.481612E+01
   0.296000E+04   0.867226E-04   0.178996E-03   0.372876E+00   0.481612E+01
   0.297000E+04   0.870704E-04   0.179849E-03   0.372879E+00   0.481612E+01
   0.298000E+04   0.874191E-04   0.180705E-03   0.372882E+00   0.481612E+01
   0.299000E+04   0.877679E-04   0.181562E-03   0.372880E+00   0.481612E+01
   0.300000E+04   0.881160E-04   0.182419E-03   0.372876E+00   0.481612E+01
   0.301000E+04   0.884639E-04   0.183276E-03   0.372877E+00   0.481612E+01
   0.302000E+04   0.888125E-04   0.184136E-03   0.372880E+00   0.481612E+01
   0.303000E+04   0.891617E-04   0.185000E-03   0.372883E+00   0.481612E+01
   0.304000E+04   0.895108E-04   0.185863E-03   0.372881E+00   0.481612E+01
   0.305000E+04   0.898590E-04   0.186726E-03   0.372877E+00   0.481612E+01
   0.306000E+04   0.902069E-04   0.187590E-03   0.372877E+00   0.481612E+01
   0.307000E+04   0.905555E-04   0.188455E-03   0.372881E+00   0.481612E+01
   0.308000E+04   0.909045E-04   0.189324E-03   0.372883E+00   0.481612E+01
   0.309000E+04   0.912531E-04   0.190193E-03   0.372881E+00   0.481612E+01
   0.310000E+04   0.916007E-04   0.191060E-03   0.372877E+00   0.481612E+01
   0.311000E+04   0.919480E-04   0.191928E-03   0.372878E+00   0.481612E+01
   0.312000E+04   0.922960E-04   0.192798E-03   0.372882E+00   0.481612E+01
   0.313000E+04   0.926442E-04   0.193671E-03   0.372883E+00   0.481612E+01
   0.314000E+04   0.929918E-04   0.194543E-03   0.372881E+00   0.481612E+01
   0.315000E+04   0.933384E-04   0.195414E-03   0.372877E+00   0.481612E+01
   0.316000E+04   0.936848E-04   0.196285E-03   0.372878E+00   0.481612E+01
   0.317000E+04   0.940318E-04   0.197159E-03   0.372882E+00   0.481612E+01
   0.318000E+04   0.943789E-04   0.198035E-03   0.372883E+00   0.481612E+01
   0.319000E+04   0.947252E-04   0.198910E-03   0.372881E+00   0.481612E+01
   0.320000E+04   0.950705E-04   0.199784E-03   0.372877E+00   0.481612E+01
   0.321000E+04   0.954159E-04   0.200658E-03   0.372879E+00   0.481612E+01
   0.322000E+04   0.957618E-04   0.201535E-03   0.372883E+00   0.481612E+01
   0.323000E+04   0.961076E-04   0.202413E-03   0.372883E+00   0.481612E+01
   0.324000E+04   0.964525E-04   0.203290E-03   0.372880E+00   0.481612E+01
   0.325000E+04   0.967966E-04   0.204165E-03   0.372877E+00   0.481612E+01
   0.326000E+04   0.971408E-04   0.205042E-03   0.372879E+00   0.481612E+01
   0.327000E+04   0.974855E-04   0.205921E-03   0.372883E+00   0.481612E+01
   0.328000E+04   0.978301E-04   0.206801E-03   0.372883E+00   0.481612E+01
   0.329000E+04   0.981736E-04   0.207679E-03   0.372880E+00   0.481612E+01
   0.330000E+04   0.985164E-04   0.208557E-03   0.372878E+00   0.481612E+01
   0.331000E+04   0.988594E-04   0.209435E-03   0.372879E+00   0.481612E+01
   0.332000E+04   0.992030E-04   0.210316E-03   0.372883E+00   0.481612E+01
   0.333000E+04   0.995461E-04   0.211197E-03   0.372882E+00   0.481612E+01
   0.334000E+04   0.998881E-04   0.212076E-03   0.372879E+00   0.481612E+01
   0.335000E+04   0.100230E-03   0.212954E-03   0.372878E+00   0.481612E+01
   0.336000E+04   0.100571E-03   0.213833E-03   0.372880E+00   0.481612E+01
   0.337000E+04   0.100914E-03   0.214715E-03   0.372882E+00   0.481612E+01
   0.338000E+04   0.101255E-03   0.215596E-03   0.372881E+00   0.481612E+01
   0.339000E+04   0.101595E-03   0.216474E-03   0.372879E+00   0.481612E+01
   0.340000E+04   0.101935E-03   0.217352E-03   0.372878E+00   0.481612E+01
   0.341000E+04   0.102276E-03   0.218232E-03   0.372880E+00   0.481612E+01
   0.342000E+04   0.102616E-03   0.219113E-03   0.372882E+00   0.481612E+01
   0.343000E+04   0.102955E-03   0.219992E-03   0.372880E+00   0.481612E+01
   0.344000E+04   0.103294E-03   0.220869E-03   0.372878E+00   0.481612E+01
   0.345000E+04   0.103632E-03   0.221745E-03   0.372879E+00   0.481612E+01
   0.346000E+04   0.103970E-03   0.222623E-03   0.372880E+00   0.481612E+01
   0.347000E+04   0.104308E-03   0.223501E-03   0.372881E+00   0.481612E+01
   0.348000E+04   0.104645E-03   0.224377E-03   0.372879E+00   0.481612E+01
   0.349000E+04   0.104980E-03   0.225251E-03   0.372878E+00   0.481612E+01
   0.350000E+04   0.105316E-03   0.226124E-03   0.372879E+00   0.481612E+01
   0.351000E+04   0.105652E-03   0.226998E-03   0.372880E+00   0.481612E+01
   0.352000E+04   0.105987E-03   0.227872E-03   0.372880E+00   0.481612E+01
   0.353000E+04   0.106320E-03   0.228743E-03   0.372878E+00   0.481612E+01
   0.354000E+04   0.106653E-03   0.229611E-03   0.372878E+00   0.481612E+01
   0.355000E+04   0.106985E-03   0.230480E-03   0.372880E+00   0.481612E+01
   0.356000E+04   0.107318E-03   0.231349E-03   0.372880E+00   0.481612E+01
   0.357000E+04   0.107649E-03   0.232216E-03   0.372879E+00   0.481612E+01
   0.358000E+04   0.107979E-03   0.233080E-03   0.372878E+00   0.481612E+01
   0.359000E+04   0.108308E-03   0.233942E-03   0.372878E+00   0.481612E+01
   0.360000E+04   0.108637E-03   0.234804E-03   0.372880E+00   0.481612E+01
   0.361000E+04   0.108966E-03   0.235667E-03   0.372880E+00   0.481612E+01
   0.362000E+04   0.109293E-03   0.236526E-03   0.372878E+00   0.481612E+01
   0.363000E+04   0.109619E-03   0.237382E-03   0.372877E+00   0.481612E+01
   0.364000E+04   0.109944E-03   0.238236E-03   0.372878E+00   0.481612E+01
   0.365000E+04   0.110269E-03   0.239090E-03   0.372881E+00   0.481612E+01
   0.366000E+04   0.110593E-03   0.239944E-03   0.372880E+00   0.481612E+01
   0.367000E+04   0.110916E-03   0.240794E-03   0.372877E+00   0.481612E+01
   0.368000E+04   0.111237E-03   0.241639E-03   0.372876E+00   0.481612E+01
   0.369000E+04   0.111557E-03   0.242483E-03   0.372878E+00   0.481612E+01
   0.370000E+04   0.111878E-03   0.243328E-03   0.372881E+00   0.481612E+01
   0.371000E+04   0.112197E-03   0.244171E-03   0.372880E+00   0.481612E+01
   0.372000E+04   0.112515E-03   0.245010E-03   0.372876E+00   0.481612E+01
   0.373000E+04   0.112830E-03   0.245844E-03   0.372876E+00   0.481612E+01
   0.374000E+04   0.113145E-03   0.246677E-03   0.372878E+00   0.481612E+01
   0.375000E+04   0.113460E-03   0.247510E-03   0.372881E+00   0.481612E+01
   0.376000E+04   0.113774E-03   0.248341E-03   0.372879E+00   0.481612E+01
   0.377000E+04   0.114086E-03   0.249167E-03   0.372876E+00   0.481612E+01
   0.378000E+04   0.114396E-03   0.249988E-03   0.372875E+00   0.481612E+01
   0.379000E+04   0.114705E-03   0.250808E-03   0.372879E+00   0.481612E+01
   0.380000E+04   0.115014E-03   0.251629E-03   0.372881E+00   0.481612E+01
   0.381000E+04   0.115322E-03   0.252446E-03   0.372879E+00   0.481612E+01
   0.382000E+04   0.115628E-03   0.253258E-03   0.372875E+00   0.481612E+01
   0.383000E+04   0.115931E-03   0.254065E-03   0.372875E+00   0.481612E+01
   0.384000E+04   0.116235E-03   0.254871E-03   0.372879E+00   0.481612E+01
   0.385000E+04   0.116538E-03   0.255678E-03   0.372881E+00   0.481612E+01
   0.386000E+04   0.116840E-03   0.256481E-03   0.372878E+00   0.481612E+01
   0.387000E+04   0.117139E-03   0.257277E-03   0.372874E+00   0.481612E+01
   0.388000E+04   0.117436E-03   0.258070E-03   0.372875E+00   0.481612E+01
   0.389000E+04   0.117734E-03   0.258862E-03   0.372879E+00   0.481612E+01
   0.390000E+04   0.118031E-03   0.259654E-03   0.372881E+00   0.481612E+01
   0.391000E+04   0.118326E-03   0.260442E-03   0.372878E+00   0.481612E+01
   0.392000E+04   0.118619E-03   0.261223E-03   0.372873E+00   0.481612E+01
   0.393000E+04   0.118910E-03   0.262000E-03   0.372875E+00   0.481612E+01