title="breakthrough data set at     5 wells"
variables="time(days)","cavg","cpk","upk","zswi"
zone i=     1295
   0.100000E+02   0.220009E-10   0.350366E-10   0.456570E+00   0.485845E+01
   0.200000E+02   0.530558E-10   0.831455E-10   0.369170E+00   0.483444E+01
   0.300000E+02   0.108696E-09   0.168383E-09   0.368493E+00   0.483444E+01
   0.400000E+02   0.202625E-09   0.310726E-09   0.368283E+00   0.483444E+01
   0.500000E+02   0.354061E-09   0.537685E-09   0.368138E+00   0.483444E+01
   0.600000E+02   0.589618E-09   0.886745E-09   0.368013E+00   0.483444E+01
   0.700000E+02   0.945477E-09   0.140809E-08   0.367895E+00   0.483444E+01
   0.800000E+02   0.146957E-08   0.216721E-08   0.367823E+00   0.483444E+01
   0.900000E+02   0.222442E-08   0.324830E-08   0.367763E+00   0.483444E+01
   0.100000E+03   0.328969E-08   0.475720E-08   0.367713E+00   0.483444E+01
   0.110000E+03   0.476467E-08   0.682405E-08   0.367671E+00   0.483444E+01
   0.120000E+03   0.676965E-08   0.966789E-08   0.367680E+00   0.483444E+01
   0.130000E+03   0.945068E-08   0.135381E-07   0.367637E+00   0.483444E+01
   0.140000E+03   0.129775E-07   0.186342E-07   0.367603E+00   0.483444E+01
   0.150000E+03   0.175447E-07   0.252353E-07   0.367578E+00   0.483444E+01
   0.160000E+03   0.233708E-07   0.336526E-07   0.367548E+00   0.483444E+01
   0.170000E+03   0.306971E-07   0.442262E-07   0.367551E+00   0.483444E+01
   0.180000E+03   0.397871E-07   0.573247E-07   0.367543E+00   0.483444E+01
   0.190000E+03   0.509220E-07   0.733366E-07   0.367539E+00   0.483444E+01
   0.200000E+03   0.643977E-07   0.926657E-07   0.367539E+00   0.483444E+01
   0.210000E+03   0.805209E-07   0.115725E-06   0.367542E+00   0.483444E+01
   0.220000E+03   0.996047E-07   0.142930E-06   0.367547E+00   0.483444E+01
   0.230000E+03   0.121965E-06   0.174692E-06   0.367555E+00   0.483444E+01
   0.240000E+03   0.147914E-06   0.211409E-06   0.367564E+00   0.483444E+01
   0.250000E+03   0.177758E-06   0.253465E-06   0.367574E+00   0.483444E+01
   0.260000E+03   0.211790E-06   0.301217E-06   0.367585E+00   0.483444E+01
   0.270000E+03   0.250289E-06   0.354991E-06   0.367597E+00   0.483444E+01
   0.280000E+03   0.293512E-06   0.415078E-06   0.367609E+00   0.483444E+01
   0.290000E+03   0.341690E-06   0.481724E-06   0.367622E+00   0.483444E+01
   0.300000E+03   0.395026E-06   0.555131E-06   0.367635E+00   0.483444E+01
   0.310000E+03   0.453691E-06   0.635448E-06   0.367648E+00   0.483444E+01
   0.320000E+03   0.517819E-06   0.722769E-06   0.367662E+00   0.483444E+01
   0.330000E+03   0.587509E-06   0.817134E-06   0.367676E+00   0.483444E+01
   0.340000E+03   0.662818E-06   0.918524E-06   0.367689E+00   0.483444E+01
   0.350000E+03   0.743762E-06   0.102686E-05   0.367703E+00   0.483444E+01
   0.360000E+03   0.830317E-06   0.114202E-05   0.367717E+00   0.483444E+01
   0.370000E+03   0.922418E-06   0.126382E-05   0.367731E+00   0.483444E+01
   0.380000E+03   0.101996E-05   0.139202E-05   0.367745E+00   0.483444E+01
   0.390000E+03   0.112280E-05   0.152637E-05   0.367759E+00   0.483444E+01
   0.400000E+03   0.123077E-05   0.166656E-05   0.367774E+00   0.483444E+01
   0.410000E+03   0.134365E-05   0.181226E-05   0.367788E+00   0.483444E+01
   0.420000E+03   0.146124E-05   0.196315E-05   0.367801E+00   0.483444E+01
   0.430000E+03   0.158328E-05   0.211886E-05   0.367815E+00   0.483444E+01
   0.440000E+03   0.170950E-05   0.227904E-05   0.367828E+00   0.483444E+01
   0.450000E+03   0.183964E-05   0.244333E-05   0.367840E+00   0.483444E+01
   0.460000E+03   0.197341E-05   0.261138E-05   0.367853E+00   0.483444E+01
   0.470000E+03   0.211051E-05   0.278282E-05   0.367865E+00   0.483444E+01
   0.480000E+03   0.225062E-05   0.295731E-05   0.367876E+00   0.483444E+01
   0.490000E+03   0.239344E-05   0.313449E-05   0.367887E+00   0.483444E+01
   0.500000E+03   0.253865E-05   0.331403E-05   0.367898E+00   0.483444E+01
   0.510000E+03   0.268593E-05   0.349560E-05   0.367909E+00   0.483444E+01
   0.520000E+03   0.283495E-05   0.367888E-05   0.367919E+00   0.483444E+01
   0.530000E+03   0.298541E-05   0.386356E-05   0.367929E+00   0.483444E+01
   0.540000E+03   0.313699E-05   0.404936E-05   0.367939E+00   0.483444E+01
   0.550000E+03   0.328939E-05   0.423601E-05   0.367948E+00   0.483444E+01
   0.560000E+03   0.344231E-05   0.442325E-05   0.367958E+00   0.483444E+01
   0.570000E+03   0.359546E-05   0.461083E-05   0.367967E+00   0.483444E+01
   0.580000E+03   0.374856E-05   0.479852E-05   0.367976E+00   0.483444E+01
   0.590000E+03   0.390135E-05   0.498609E-05   0.367985E+00   0.483444E+01
   0.600000E+03   0.405356E-05   0.517334E-05   0.367993E+00   0.483444E+01
   0.610000E+03   0.420494E-05   0.536007E-05   0.368002E+00   0.483444E+01
   0.620000E+03   0.435524E-05   0.557622E-05   0.368010E+00   0.483444E+01
   0.630000E+03   0.450423E-05   0.580019E-05   0.368018E+00   0.483444E+01
   0.640000E+03   0.465169E-05   0.602601E-05   0.368026E+00   0.483444E+01
   0.650000E+03   0.479741E-05   0.625352E-05   0.368033E+00   0.483444E+01
   0.660000E+03   0.494121E-05   0.648253E-05   0.368041E+00   0.483444E+01
   0.670000E+03   0.508288E-05   0.671290E-05   0.368048E+00   0.483444E+01
   0.680000E+03   0.522228E-05   0.694446E-05   0.368055E+00   0.483444E+01
   0.690000E+03   0.535926E-05   0.717706E-05   0.368062E+00   0.483444E+01
   0.700000E+03   0.549367E-05   0.741054E-05   0.368068E+00   0.483444E+01
   0.710000E+03   0.562539E-05   0.764475E-05   0.368075E+00   0.483444E+01
   0.720000E+03   0.575433E-05   0.787956E-05   0.368081E+00   0.483444E+01
   0.730000E+03   0.588038E-05   0.811481E-05   0.368088E+00   0.483444E+01
   0.740000E+03   0.600346E-05   0.835036E-05   0.368094E+00   0.483444E+01
   0.750000E+03   0.612349E-05   0.858606E-05   0.368100E+00   0.483444E+01
   0.760000E+03   0.624039E-05   0.882177E-05   0.368106E+00   0.483444E+01
   0.770000E+03   0.635410E-05   0.905734E-05   0.368112E+00   0.483444E+01
   0.780000E+03   0.646454E-05   0.929262E-05   0.368118E+00   0.483444E+01
   0.790000E+03   0.657164E-05   0.952746E-05   0.368124E+00   0.483444E+01
   0.800000E+03   0.667532E-05   0.976171E-05   0.368130E+00   0.483444E+01
   0.810000E+03   0.677550E-05   0.999521E-05   0.368135E+00   0.483444E+01
   0.820000E+03   0.687211E-05   0.102278E-04   0.368141E+00   0.483444E+01
   0.830000E+03   0.696506E-05   0.104593E-04   0.368147E+00   0.483444E+01
   0.840000E+03   0.705426E-05   0.106897E-04   0.368152E+00   0.483444E+01
   0.850000E+03   0.713964E-05   0.109186E-04   0.368158E+00   0.483444E+01
   0.860000E+03   0.722111E-05   0.111461E-04   0.368163E+00   0.483444E+01
   0.870000E+03   0.729859E-05   0.113718E-04   0.368169E+00   0.483444E+01
   0.880000E+03   0.737202E-05   0.115957E-04   0.368174E+00   0.483444E+01
   0.890000E+03   0.744132E-05   0.118175E-04   0.368179E+00   0.483444E+01
   0.900000E+03   0.750644E-05   0.120372E-04   0.368185E+00   0.483444E+01
   0.910000E+03   0.756731E-05   0.122546E-04   0.368190E+00   0.483444E+01
   0.920000E+03   0.762390E-05   0.124695E-04   0.368195E+00   0.483444E+01
   0.930000E+03   0.767614E-05   0.126817E-04   0.368200E+00   0.483444E+01
   0.940000E+03   0.772399E-05   0.128912E-04   0.368206E+00   0.483444E+01
   0.950000E+03   0.776741E-05   0.130977E-04   0.368211E+00   0.483444E+01
   0.960000E+03   0.780636E-05   0.133012E-04   0.368216E+00   0.483444E+01
   0.970000E+03   0.784079E-05   0.135015E-04   0.368221E+00   0.483444E+01
   0.980000E+03   0.787069E-05   0.136984E-04   0.368226E+00   0.483444E+01
   0.990000E+03   0.789602E-05   0.138919E-04   0.368231E+00   0.483444E+01
   0.100000E+04   0.791678E-05   0.140819E-04   0.368235E+00   0.483444E+01
   0.101000E+04   0.793298E-05   0.142682E-04   0.368240E+00   0.483444E+01
   0.102000E+04   0.794462E-05   0.144508E-04   0.368245E+00   0.483444E+01
   0.103000E+04   0.795176E-05   0.146296E-04   0.368250E+00   0.483444E+01
   0.104000E+04   0.795448E-05   0.148046E-04   0.368254E+00   0.483444E+01
   0.105000E+04   0.795288E-05   0.149756E-04   0.368259E+00   0.483444E+01
   0.106000E+04   0.794712E-05   0.151426E-04   0.368264E+00   0.483444E+01
   0.107000E+04   0.793735E-05   0.153056E-04   0.368269E+00   0.483444E+01
   0.108000E+04   0.792380E-05   0.154645E-04   0.368273E+00   0.483444E+01
   0.109000E+04   0.790668E-05   0.156194E-04   0.368278E+00   0.483444E+01
   0.110000E+04   0.788626E-05   0.157701E-04   0.368283E+00   0.483444E+01
   0.111000E+04   0.786284E-05   0.159168E-04   0.368288E+00   0.483444E+01
   0.112000E+04   0.783671E-05   0.160594E-04   0.368292E+00   0.483444E+01
   0.113000E+04   0.780820E-05   0.161980E-04   0.368297E+00   0.483444E+01
   0.114000E+04   0.777764E-05   0.163325E-04   0.368302E+00   0.483444E+01
   0.115000E+04   0.774536E-05   0.164630E-04   0.368307E+00   0.483444E+01
   0.116000E+04   0.771171E-05   0.165895E-04   0.368312E+00   0.483444E+01
   0.117000E+04   0.767700E-05   0.167121E-04   0.368317E+00   0.483444E+01
   0.118000E+04   0.764154E-05   0.168308E-04   0.368322E+00   0.483444E+01
   0.119000E+04   0.760565E-05   0.169457E-04   0.368327E+00   0.483444E+01
   0.120000E+04   0.756962E-05   0.170568E-04   0.368331E+00   0.483444E+01
   0.121000E+04   0.753373E-05   0.171642E-04   0.368336E+00   0.483444E+01
   0.122000E+04   0.749825E-05   0.172679E-04   0.368340E+00   0.483444E+01
   0.123000E+04   0.746344E-05   0.173681E-04   0.368345E+00   0.483444E+01
   0.124000E+04   0.742954E-05   0.174647E-04   0.368349E+00   0.483444E+01
   0.125000E+04   0.739680E-05   0.175579E-04   0.368354E+00   0.483444E+01
   0.126000E+04   0.736544E-05   0.176478E-04   0.368358E+00   0.483444E+01
   0.127000E+04   0.733567E-05   0.177343E-04   0.368363E+00   0.483444E+01
   0.128000E+04   0.730771E-05   0.178177E-04   0.368367E+00   0.483444E+01
   0.129000E+04   0.728178E-05   0.178981E-04   0.368371E+00   0.483444E+01
   0.130000E+04   0.725808E-05   0.179754E-04   0.368376E+00   0.483444E+01
   0.131000E+04   0.723685E-05   0.180499E-04   0.368380E+00   0.483444E+01
   0.132000E+04   0.721832E-05   0.181217E-04   0.368384E+00   0.483444E+01
   0.133000E+04   0.720273E-05   0.181908E-04   0.368388E+00   0.483444E+01
   0.134000E+04   0.719036E-05   0.182575E-04   0.368392E+00   0.483444E+01
   0.135000E+04   0.718146E-05   0.183218E-04   0.368396E+00   0.483444E+01
   0.136000E+04   0.717636E-05   0.183840E-04   0.368400E+00   0.483444E+01
   0.137000E+04   0.717536E-05   0.184442E-04   0.368404E+00   0.483444E+01
   0.138000E+04   0.717879E-05   0.185025E-04   0.368408E+00   0.483444E+01
   0.139000E+04   0.718698E-05   0.185592E-04   0.368412E+00   0.483444E+01
   0.140000E+04   0.720027E-05   0.186143E-04   0.368416E+00   0.483444E+01
   0.141000E+04   0.721901E-05   0.186681E-04   0.368420E+00   0.483444E+01
   0.142000E+04   0.724353E-05   0.187207E-04   0.368424E+00   0.483444E+01
   0.143000E+04   0.727415E-05   0.187723E-04   0.368428E+00   0.483444E+01
   0.144000E+04   0.731118E-05   0.188230E-04   0.368432E+00   0.483444E+01
   0.145000E+04   0.735492E-05   0.188729E-04   0.368436E+00   0.483444E+01
   0.146000E+04   0.740566E-05   0.189222E-04   0.368440E+00   0.483444E+01
   0.147000E+04   0.746363E-05   0.189711E-04   0.368444E+00   0.483444E+01
   0.148000E+04   0.752909E-05   0.190196E-04   0.368448E+00   0.483444E+01
   0.149000E+04   0.760224E-05   0.190678E-04   0.368452E+00   0.483444E+01
   0.150000E+04   0.768328E-05   0.191159E-04   0.368455E+00   0.483444E+01
   0.151000E+04   0.777235E-05   0.191640E-04   0.368459E+00   0.483444E+01
   0.152000E+04   0.786960E-05   0.192121E-04   0.368463E+00   0.483444E+01
   0.153000E+04   0.797514E-05   0.192605E-04   0.368467E+00   0.483444E+01
   0.154000E+04   0.808905E-05   0.193091E-04   0.368471E+00   0.483444E+01
   0.155000E+04   0.821138E-05   0.193580E-04   0.368474E+00   0.483444E+01
   0.156000E+04   0.834214E-05   0.194074E-04   0.368478E+00   0.483444E+01
   0.157000E+04   0.848134E-05   0.194572E-04   0.368482E+00   0.483444E+01
   0.158000E+04   0.862894E-05   0.195077E-04   0.368486E+00   0.483444E+01
   0.159000E+04   0.878487E-05   0.195587E-04   0.368490E+00   0.483444E+01
   0.160000E+04   0.894904E-05   0.196104E-04   0.368493E+00   0.483444E+01
   0.161000E+04   0.912132E-05   0.196628E-04   0.368497E+00   0.483444E+01
   0.162000E+04   0.930158E-05   0.197160E-04   0.368501E+00   0.483444E+01
   0.163000E+04   0.948965E-05   0.197700E-04   0.368505E+00   0.483444E+01
   0.164000E+04   0.968532E-05   0.198248E-04   0.368508E+00   0.483444E+01
   0.165000E+04   0.988839E-05   0.198805E-04   0.368512E+00   0.483444E+01
   0.166000E+04   0.100986E-04   0.199372E-04   0.368516E+00   0.483444E+01
   0.167000E+04   0.103158E-04   0.199947E-04   0.368520E+00   0.483444E+01
   0.168000E+04   0.105397E-04   0.200532E-04   0.368524E+00   0.483444E+01
   0.169000E+04   0.107700E-04   0.201127E-04   0.368527E+00   0.483444E+01
   0.170000E+04   0.110065E-04   0.201732E-04   0.368531E+00   0.483444E+01
   0.171000E+04   0.112488E-04   0.202347E-04   0.368535E+00   0.483444E+01
   0.172000E+04   0.114967E-04   0.202972E-04   0.368539E+00   0.483444E+01
   0.173000E+04   0.117500E-04   0.203608E-04   0.368542E+00   0.483444E+01
   0.174000E+04   0.120082E-04   0.204254E-04   0.368545E+00   0.483444E+01
   0.175000E+04   0.122712E-04   0.204911E-04   0.368549E+00   0.483444E+01
   0.176000E+04   0.125386E-04   0.205578E-04   0.368554E+00   0.483444E+01
   0.177000E+04   0.128102E-04   0.206257E-04   0.368557E+00   0.483444E+01
   0.178000E+04   0.130856E-04   0.206946E-04   0.368560E+00   0.483444E+01
   0.179000E+04   0.133645E-04   0.207647E-04   0.368562E+00   0.483444E+01
   0.180000E+04   0.136468E-04   0.208360E-04   0.368567E+00   0.483444E+01
   0.181000E+04   0.139322E-04   0.209086E-04   0.368573E+00   0.483444E+01
   0.182000E+04   0.142204E-04   0.209824E-04   0.368575E+00   0.483444E+01
   0.183000E+04   0.145137E-04   0.210566E-04   0.368579E+00   0.483444E+01
   0.184000E+04   0.148094E-04   0.211925E-04   0.368579E+00   0.483444E+01
   0.185000E+04   0.151074E-04   0.214250E-04   0.368590E+00   0.483444E+01
   0.186000E+04   0.154077E-04   0.216590E-04   0.368599E+00   0.483444E+01
   0.187000E+04   0.157100E-04   0.218947E-04   0.368604E+00   0.483444E+01
   0.188000E+04   0.160143E-04   0.221325E-04   0.368603E+00   0.483444E+01
   0.189000E+04   0.163205E-04   0.223727E-04   0.368603E+00   0.483444E+01
   0.190000E+04   0.166287E-04   0.226155E-04   0.368606E+00   0.483444E+01
   0.191000E+04   0.169389E-04   0.228612E-04   0.368619E+00   0.483444E+01
   0.192000E+04   0.172487E-04   0.231122E-04   0.368614E+00   0.483444E+01
   0.193000E+04   0.175604E-04   0.233666E-04   0.368617E+00   0.483444E+01
   0.194000E+04   0.178741E-04   0.236244E-04   0.368621E+00   0.483444E+01
   0.195000E+04   0.181895E-04   0.238858E-04   0.368625E+00   0.483444E+01
   0.196000E+04   0.185067E-04   0.241507E-04   0.368628E+00   0.483444E+01
   0.197000E+04   0.188256E-04   0.244194E-04   0.368629E+00   0.483444E+01
   0.198000E+04   0.191460E-04   0.246918E-04   0.368631E+00   0.483444E+01
   0.199000E+04   0.194679E-04   0.249680E-04   0.368635E+00   0.483444E+01
   0.200000E+04   0.197913E-04   0.252483E-04   0.368639E+00   0.483444E+01
   0.201000E+04   0.201161E-04   0.255327E-04   0.368640E+00   0.483444E+01
   0.202000E+04   0.204422E-04   0.258213E-04   0.368640E+00   0.483444E+01
   0.203000E+04   0.207696E-04   0.261142E-04   0.368642E+00   0.483444E+01
   0.204000E+04   0.210985E-04   0.264115E-04   0.368648E+00   0.483444E+01
   0.205000E+04   0.214303E-04   0.267108E-04   0.368655E+00   0.483444E+01
   0.206000E+04   0.217636E-04   0.270148E-04   0.368656E+00   0.483444E+01
   0.207000E+04   0.220985E-04   0.273236E-04   0.368653E+00   0.483444E+01
   0.208000E+04   0.224350E-04   0.276370E-04   0.368653E+00   0.483444E+01
   0.209000E+04   0.227730E-04   0.279548E-04   0.368661E+00   0.483444E+01
   0.210000E+04   0.231126E-04   0.282767E-04   0.368668E+00   0.483444E+01
   0.211000E+04   0.234538E-04   0.286027E-04   0.368673E+00   0.483444E+01
   0.212000E+04   0.237964E-04   0.289323E-04   0.368672E+00   0.483444E+01
   0.213000E+04   0.241404E-04   0.292655E-04   0.368669E+00   0.483444E+01
   0.214000E+04   0.244858E-04   0.296018E-04   0.368669E+00   0.483444E+01
   0.215000E+04   0.248317E-04   0.299660E-04   0.368674E+00   0.483444E+01
   0.216000E+04   0.251792E-04   0.304627E-04   0.368682E+00   0.483444E+01
   0.217000E+04   0.255277E-04   0.309614E-04   0.368686E+00   0.483444E+01
   0.218000E+04   0.258771E-04   0.314622E-04   0.368679E+00   0.483444E+01
   0.219000E+04   0.262271E-04   0.319660E-04   0.368684E+00   0.483444E+01
   0.220000E+04   0.265776E-04   0.324704E-04   0.368686E+00   0.483444E+01
   0.221000E+04   0.269287E-04   0.329752E-04   0.368686E+00   0.483444E+01
   0.222000E+04   0.272803E-04   0.334802E-04   0.368687E+00   0.483444E+01
   0.223000E+04   0.276324E-04   0.339854E-04   0.368688E+00   0.483444E+01
   0.224000E+04   0.279849E-04   0.344905E-04   0.368691E+00   0.483444E+01
   0.225000E+04   0.283379E-04   0.349956E-04   0.368693E+00   0.483444E+01
   0.226000E+04   0.286912E-04   0.355006E-04   0.368692E+00   0.483444E+01
   0.227000E+04   0.290449E-04   0.360052E-04   0.368691E+00   0.483444E+01
   0.228000E+04   0.293989E-04   0.365093E-04   0.368694E+00   0.483444E+01
   0.229000E+04   0.297531E-04   0.370128E-04   0.368698E+00   0.483444E+01
   0.230000E+04   0.301076E-04   0.375156E-04   0.368699E+00   0.483444E+01
   0.231000E+04   0.304621E-04   0.380157E-04   0.368696E+00   0.483444E+01
   0.232000E+04   0.308174E-04   0.385180E-04   0.368701E+00   0.483444E+01
   0.233000E+04   0.311729E-04   0.390197E-04   0.368702E+00   0.483444E+01
   0.234000E+04   0.315287E-04   0.395207E-04   0.368701E+00   0.483444E+01
   0.235000E+04   0.318849E-04   0.400212E-04   0.368701E+00   0.483444E+01
   0.236000E+04   0.322414E-04   0.405211E-04   0.368704E+00   0.483444E+01
   0.237000E+04   0.325982E-04   0.410205E-04   0.368708E+00   0.483444E+01
   0.238000E+04   0.329557E-04   0.415199E-04   0.368708E+00   0.483444E+01
   0.239000E+04   0.333132E-04   0.420168E-04   0.368707E+00   0.483444E+01
   0.240000E+04   0.336718E-04   0.425150E-04   0.368705E+00   0.483444E+01
   0.241000E+04   0.340314E-04   0.430143E-04   0.368711E+00   0.483444E+01
   0.242000E+04   0.343921E-04   0.435146E-04   0.368719E+00   0.483444E+01
   0.243000E+04   0.347541E-04   0.440165E-04   0.368723E+00   0.483444E+01
   0.244000E+04   0.351174E-04   0.445203E-04   0.368721E+00   0.483444E+01
   0.245000E+04   0.354824E-04   0.450263E-04   0.368717E+00   0.483444E+01
   0.246000E+04   0.358490E-04   0.455345E-04   0.368717E+00   0.483444E+01
   0.247000E+04   0.362171E-04   0.460442E-04   0.368728E+00   0.483444E+01
   0.248000E+04   0.365883E-04   0.465600E-04   0.368724E+00   0.483444E+01
   0.249000E+04   0.369612E-04   0.470778E-04   0.368725E+00   0.483444E+01
   0.250000E+04   0.373361E-04   0.475979E-04   0.368727E+00   0.483444E+01
   0.251000E+04   0.377131E-04   0.481208E-04   0.368729E+00   0.483444E+01
   0.252000E+04   0.380924E-04   0.486469E-04   0.368730E+00   0.483444E+01
   0.253000E+04   0.384742E-04   0.491767E-04   0.368729E+00   0.483444E+01
   0.254000E+04   0.388587E-04   0.497104E-04   0.368728E+00   0.483444E+01
   0.255000E+04   0.392461E-04   0.502482E-04   0.368731E+00   0.483444E+01
   0.256000E+04   0.396364E-04   0.507905E-04   0.368733E+00   0.483444E+01
   0.257000E+04   0.400300E-04   0.513377E-04   0.368733E+00   0.483444E+01
   0.258000E+04   0.404256E-04   0.518869E-04   0.368731E+00   0.483444E+01
   0.259000E+04   0.408263E-04   0.524453E-04   0.368735E+00   0.483444E+01
   0.260000E+04   0.412306E-04   0.530092E-04   0.368735E+00   0.483444E+01
   0.261000E+04   0.416386E-04   0.535789E-04   0.368734E+00   0.483444E+01
   0.262000E+04   0.420505E-04   0.541545E-04   0.368734E+00   0.483444E+01
   0.263000E+04   0.424663E-04   0.547358E-04   0.368737E+00   0.483444E+01
   0.264000E+04   0.428861E-04   0.553232E-04   0.368740E+00   0.483444E+01
   0.265000E+04   0.433102E-04   0.559171E-04   0.368739E+00   0.483444E+01
   0.266000E+04   0.437369E-04   0.565142E-04   0.368737E+00   0.483444E+01
   0.267000E+04   0.441685E-04   0.571192E-04   0.368735E+00   0.483444E+01
   0.268000E+04   0.446047E-04   0.578441E-04   0.368743E+00   0.483444E+01
   0.269000E+04   0.450457E-04   0.587998E-04   0.368750E+00   0.483444E+01
   0.270000E+04   0.454916E-04   0.597680E-04   0.368754E+00   0.483444E+01
   0.271000E+04   0.459426E-04   0.607492E-04   0.368750E+00   0.483444E+01
   0.272000E+04   0.463985E-04   0.617433E-04   0.368746E+00   0.483444E+01
   0.273000E+04   0.468589E-04   0.627498E-04   0.368746E+00   0.483444E+01
   0.274000E+04   0.473232E-04   0.637684E-04   0.368754E+00   0.483444E+01
   0.275000E+04   0.477946E-04   0.647982E-04   0.368752E+00   0.483444E+01
   0.276000E+04   0.482680E-04   0.658409E-04   0.368759E+00   0.483444E+01
   0.277000E+04   0.487464E-04   0.668962E-04   0.368763E+00   0.483444E+01
   0.278000E+04   0.492302E-04   0.679646E-04   0.368762E+00   0.483444E+01
   0.279000E+04   0.497190E-04   0.690460E-04   0.368757E+00   0.483444E+01
   0.280000E+04   0.502119E-04   0.701398E-04   0.368754E+00   0.483444E+01
   0.281000E+04   0.507078E-04   0.712447E-04   0.368761E+00   0.483444E+01
   0.282000E+04   0.512065E-04   0.723593E-04   0.368767E+00   0.483444E+01
   0.283000E+04   0.517081E-04   0.734828E-04   0.368769E+00   0.483444E+01
   0.284000E+04   0.522135E-04   0.746152E-04   0.368766E+00   0.483444E+01
   0.285000E+04   0.527235E-04   0.757569E-04   0.368764E+00   0.483444E+01
   0.286000E+04   0.532388E-04   0.769087E-04   0.368767E+00   0.483444E+01
   0.287000E+04   0.537581E-04   0.780706E-04   0.368777E+00   0.483444E+01
   0.288000E+04   0.542858E-04   0.792433E-04   0.368771E+00   0.483444E+01
   0.289000E+04   0.548192E-04   0.804264E-04   0.368773E+00   0.483444E+01
   0.290000E+04   0.553593E-04   0.816209E-04   0.368776E+00   0.483444E+01
   0.291000E+04   0.559077E-04   0.828284E-04   0.368778E+00   0.483444E+01
   0.292000E+04   0.564656E-04   0.840509E-04   0.368777E+00   0.483444E+01
   0.293000E+04   0.570338E-04   0.852904E-04   0.368775E+00   0.483444E+01
   0.294000E+04   0.576131E-04   0.865486E-04   0.368776E+00   0.483444E+01
   0.295000E+04   0.582039E-04   0.878271E-04   0.368779E+00   0.483444E+01
   0.296000E+04   0.588067E-04   0.891277E-04   0.368781E+00   0.483444E+01
   0.297000E+04   0.594215E-04   0.904518E-04   0.368779E+00   0.483444E+01
   0.298000E+04   0.600460E-04   0.918007E-04   0.368775E+00   0.483444E+01
   0.299000E+04   0.606839E-04   0.931740E-04   0.368780E+00   0.483444E+01
   0.300000E+04   0.613325E-04   0.945718E-04   0.368780E+00   0.483444E+01
   0.301000E+04   0.619916E-04   0.959941E-04   0.368778E+00   0.483444E+01
   0.302000E+04   0.626606E-04   0.974406E-04   0.368776E+00   0.483444E+01
   0.303000E+04   0.633389E-04   0.989108E-04   0.368779E+00   0.483444E+01
   0.304000E+04   0.640258E-04   0.100404E-03   0.368781E+00   0.483444E+01
   0.305000E+04   0.647212E-04   0.101919E-03   0.368780E+00   0.483444E+01
   0.306000E+04   0.654230E-04   0.103456E-03   0.368778E+00   0.483444E+01
   0.307000E+04   0.661336E-04   0.105016E-03   0.368775E+00   0.483444E+01
   0.308000E+04   0.668518E-04   0.106597E-03   0.368781E+00   0.483444E+01
   0.309000E+04   0.675767E-04   0.108197E-03   0.368788E+00   0.483444E+01
   0.310000E+04   0.683071E-04   0.109815E-03   0.368790E+00   0.483444E+01
   0.311000E+04   0.690413E-04   0.111449E-03   0.368785E+00   0.483444E+01
   0.312000E+04   0.697782E-04   0.113096E-03   0.368779E+00   0.483444E+01
   0.313000E+04   0.705178E-04   0.114753E-03   0.368780E+00   0.483444E+01
   0.314000E+04   0.712606E-04   0.116420E-03   0.368789E+00   0.483444E+01
   0.315000E+04   0.720075E-04   0.118097E-03   0.368797E+00   0.483444E+01
   0.316000E+04   0.727586E-04   0.119785E-03   0.368799E+00   0.483444E+01
   0.317000E+04   0.735135E-04   0.121482E-03   0.368794E+00   0.483444E+01
   0.318000E+04   0.742715E-04   0.123187E-03   0.368789E+00   0.483444E+01
   0.319000E+04   0.750324E-04   0.124899E-03   0.368788E+00   0.483444E+01
   0.320000E+04   0.757968E-04   0.126617E-03   0.368795E+00   0.483444E+01
   0.321000E+04   0.765658E-04   0.128342E-03   0.368809E+00   0.483444E+01
   0.322000E+04   0.773417E-04   0.130075E-03   0.368818E+00   0.483444E+01
   0.323000E+04   0.781266E-04   0.131819E-03   0.368816E+00   0.483444E+01
   0.324000E+04   0.789206E-04   0.133577E-03   0.368806E+00   0.483444E+01
   0.325000E+04   0.797226E-04   0.135347E-03   0.368799E+00   0.483444E+01
   0.326000E+04   0.805304E-04   0.137130E-03   0.368804E+00   0.483444E+01
   0.327000E+04   0.813429E-04   0.138924E-03   0.368818E+00   0.483444E+01
   0.328000E+04   0.821597E-04   0.140727E-03   0.368826E+00   0.483444E+01
   0.329000E+04   0.829817E-04   0.142540E-03   0.368827E+00   0.483444E+01
   0.330000E+04   0.838101E-04   0.144364E-03   0.368822E+00   0.483444E+01
   0.331000E+04   0.846462E-04   0.146200E-03   0.368816E+00   0.483444E+01
   0.332000E+04   0.854895E-04   0.148049E-03   0.368815E+00   0.483444E+01
   0.333000E+04   0.863386E-04   0.149911E-03   0.368822E+00   0.483444E+01
   0.334000E+04   0.871919E-04   0.151783E-03   0.368831E+00   0.483444E+01
   0.335000E+04   0.880487E-04   0.153667E-03   0.368834E+00   0.483444E+01
   0.336000E+04   0.889092E-04   0.155560E-03   0.368829E+00   0.483444E+01
   0.337000E+04   0.897737E-04   0.157463E-03   0.368823E+00   0.483444E+01
   0.338000E+04   0.906429E-04   0.159375E-03   0.368823E+00   0.483444E+01
   0.339000E+04   0.915179E-04   0.161296E-03   0.368830E+00   0.483444E+01
   0.340000E+04   0.923992E-04   0.163229E-03   0.368837E+00   0.483444E+01
   0.341000E+04   0.932867E-04   0.165174E-03   0.368839E+00   0.483444E+01
   0.342000E+04   0.941796E-04   0.167132E-03   0.368834E+00   0.483444E+01
   0.343000E+04   0.950770E-04   0.169102E-03   0.368828E+00   0.483444E+01
   0.344000E+04   0.959783E-04   0.171082E-03   0.368824E+00   0.483444E+01
   0.345000E+04   0.968802E-04   0.173069E-03   0.368840E+00   0.483444E+01
   0.346000E+04   0.977871E-04   0.175064E-03   0.368834E+00   0.483444E+01
   0.347000E+04   0.986984E-04   0.177067E-03   0.368831E+00   0.483444E+01
   0.348000E+04   0.996152E-04   0.179079E-03   0.368832E+00   0.483444E+01
   0.349000E+04   0.100538E-03   0.181101E-03   0.368835E+00   0.483444E+01
   0.350000E+04   0.101469E-03   0.183135E-03   0.368835E+00   0.483444E+01
   0.351000E+04   0.102407E-03   0.185183E-03   0.368831E+00   0.483444E+01
   0.352000E+04   0.103354E-03   0.187246E-03   0.368827E+00   0.483444E+01
   0.353000E+04   0.104308E-03   0.189325E-03   0.368827E+00   0.483444E+01
   0.354000E+04   0.105267E-03   0.191419E-03   0.368830E+00   0.483444E+01
   0.355000E+04   0.106232E-03   0.193527E-03   0.368829E+00   0.483444E+01
   0.356000E+04   0.107200E-03   0.195650E-03   0.368820E+00   0.483444E+01
   0.357000E+04   0.108173E-03   0.197784E-03   0.368826E+00   0.483444E+01
   0.358000E+04   0.109147E-03   0.199929E-03   0.368825E+00   0.483444E+01
   0.359000E+04   0.110123E-03   0.202083E-03   0.368822E+00   0.483444E+01
   0.360000E+04   0.111099E-03   0.204244E-03   0.368819E+00   0.483444E+01
   0.361000E+04   0.112076E-03   0.206411E-03   0.368820E+00   0.483444E+01
   0.362000E+04   0.113051E-03   0.208582E-03   0.368823E+00   0.483444E+01
   0.363000E+04   0.114025E-03   0.210756E-03   0.368821E+00   0.483444E+01
   0.364000E+04   0.114997E-03   0.212933E-03   0.368817E+00   0.483444E+01
   0.365000E+04   0.115968E-03   0.215112E-03   0.368811E+00   0.483444E+01
   0.366000E+04   0.116935E-03   0.217290E-03   0.368815E+00   0.483444E+01
   0.367000E+04   0.117898E-03   0.219465E-03   0.368822E+00   0.483444E+01
   0.368000E+04   0.118856E-03   0.221635E-03   0.368827E+00   0.483444E+01
   0.369000E+04   0.119808E-03   0.223799E-03   0.368825E+00   0.483444E+01
   0.370000E+04   0.120752E-03   0.225953E-03   0.368816E+00   0.483444E+01
   0.371000E+04   0.121686E-03   0.228094E-03   0.368811E+00   0.483444E+01
   0.372000E+04   0.122609E-03   0.230218E-03   0.368814E+00   0.483444E+01
   0.373000E+04   0.123520E-03   0.232322E-03   0.368821E+00   0.483444E+01
   0.374000E+04   0.124421E-03   0.234405E-03   0.368825E+00   0.483444E+01
   0.375000E+04   0.125315E-03   0.236469E-03   0.368825E+00   0.483444E+01
   0.376000E+04   0.126203E-03   0.238513E-03   0.368823E+00   0.483444E+01
   0.377000E+04   0.127088E-03   0.240541E-03   0.368821E+00   0.483444E+01
   0.378000E+04   0.127971E-03   0.242556E-03   0.368822E+00   0.483444E+01
   0.379000E+04   0.128851E-03   0.244558E-03   0.368826E+00   0.483444E+01
   0.380000E+04   0.129729E-03   0.246549E-03   0.368831E+00   0.483444E+01
   0.381000E+04   0.130604E-03   0.248530E-03   0.368832E+00   0.483444E+01
   0.382000E+04   0.131477E-03   0.250501E-03   0.368829E+00   0.483444E+01
   0.383000E+04   0.132350E-03   0.252463E-03   0.368829E+00   0.483444E+01
   0.384000E+04   0.133223E-03   0.254417E-03   0.368832E+00   0.483444E+01
   0.385000E+04   0.134093E-03   0.256362E-03   0.368835E+00   0.483444E+01
   0.386000E+04   0.134967E-03   0.258304E-03   0.368838E+00   0.483444E+01
   0.387000E+04   0.135842E-03   0.260241E-03   0.368839E+00   0.483444E+01
   0.388000E+04   0.136719E-03   0.262176E-03   0.368837E+00   0.483444E+01
   0.389000E+04   0.137596E-03   0.264110E-03   0.368832E+00   0.483444E+01
   0.390000E+04   0.138471E-03   0.266041E-03   0.368831E+00   0.483444E+01
   0.391000E+04   0.139343E-03   0.267966E-03   0.368834E+00   0.483444E+01
   0.392000E+04   0.140211E-03   0.269884E-03   0.368840E+00   0.483444E+01
   0.393000E+04   0.141076E-03   0.271793E-03   0.368845E+00   0.483444E+01