title="breakthrough data set at     5 wells"
variables="time(days)","cavg","cpk","upk","zswi"
zone i=     1295
   0.100000E+02   0.795480E-10   0.119781E-09   0.470072E+00   0.486460E+01
   0.200000E+02   0.174418E-09   0.259349E-09   0.380032E+00   0.484271E+01
   0.300000E+02   0.337345E-09   0.497962E-09   0.379909E+00   0.484271E+01
   0.400000E+02   0.606564E-09   0.890567E-09   0.380107E+00   0.484271E+01
   0.500000E+02   0.103573E-08   0.151385E-08   0.380255E+00   0.484271E+01
   0.600000E+02   0.169839E-08   0.247232E-08   0.380380E+00   0.484271E+01
   0.700000E+02   0.269239E-08   0.390411E-08   0.380497E+00   0.484271E+01
   0.800000E+02   0.414485E-08   0.598745E-08   0.380577E+00   0.484271E+01
   0.900000E+02   0.621483E-08   0.894361E-08   0.380647E+00   0.484271E+01
   0.100000E+03   0.909627E-08   0.130402E-07   0.380709E+00   0.484271E+01
   0.110000E+03   0.130150E-07   0.185856E-07   0.380701E+00   0.484271E+01
   0.120000E+03   0.182383E-07   0.259430E-07   0.380764E+00   0.484271E+01
   0.130000E+03   0.250668E-07   0.355168E-07   0.380819E+00   0.484271E+01
   0.140000E+03   0.338330E-07   0.477493E-07   0.380867E+00   0.484271E+01
   0.150000E+03   0.448964E-07   0.631139E-07   0.380911E+00   0.484271E+01
   0.160000E+03   0.586377E-07   0.821060E-07   0.380952E+00   0.484271E+01
   0.170000E+03   0.754514E-07   0.105233E-06   0.380990E+00   0.484271E+01
   0.180000E+03   0.957377E-07   0.133002E-06   0.381026E+00   0.484271E+01
   0.190000E+03   0.119894E-06   0.165911E-06   0.381061E+00   0.484271E+01
   0.200000E+03   0.148307E-06   0.204437E-06   0.381094E+00   0.484271E+01
   0.210000E+03   0.181343E-06   0.249023E-06   0.381126E+00   0.484271E+01
   0.220000E+03   0.219340E-06   0.300069E-06   0.381156E+00   0.484271E+01
   0.230000E+03   0.262599E-06   0.357927E-06   0.381186E+00   0.484271E+01
   0.240000E+03   0.311375E-06   0.422885E-06   0.381214E+00   0.484271E+01
   0.250000E+03   0.365878E-06   0.495168E-06   0.381242E+00   0.484271E+01
   0.260000E+03   0.426259E-06   0.574935E-06   0.381268E+00   0.484271E+01
   0.270000E+03   0.492617E-06   0.662273E-06   0.381294E+00   0.484271E+01
   0.280000E+03   0.564992E-06   0.757202E-06   0.381318E+00   0.484271E+01
   0.290000E+03   0.643362E-06   0.859664E-06   0.381341E+00   0.484271E+01
   0.300000E+03   0.727643E-06   0.969531E-06   0.381363E+00   0.484271E+01
   0.310000E+03   0.817684E-06   0.108660E-05   0.381385E+00   0.484271E+01
   0.320000E+03   0.913272E-06   0.121058E-05   0.381405E+00   0.484271E+01
   0.330000E+03   0.101413E-05   0.134114E-05   0.381425E+00   0.484271E+01
   0.340000E+03   0.111991E-05   0.147784E-05   0.381444E+00   0.484271E+01
   0.350000E+03   0.123024E-05   0.162023E-05   0.381462E+00   0.484271E+01
   0.360000E+03   0.134465E-05   0.176776E-05   0.381479E+00   0.484271E+01
   0.370000E+03   0.146267E-05   0.191985E-05   0.381496E+00   0.484271E+01
   0.380000E+03   0.158373E-05   0.207585E-05   0.381513E+00   0.484271E+01
   0.390000E+03   0.170724E-05   0.223507E-05   0.381529E+00   0.484271E+01
   0.400000E+03   0.183258E-05   0.239678E-05   0.381544E+00   0.484271E+01
   0.410000E+03   0.195905E-05   0.256018E-05   0.381559E+00   0.484271E+01
   0.420000E+03   0.208593E-05   0.272445E-05   0.381573E+00   0.484271E+01
   0.430000E+03   0.221247E-05   0.288877E-05   0.381587E+00   0.484271E+01
   0.440000E+03   0.233790E-05   0.305225E-05   0.381600E+00   0.484271E+01
   0.450000E+03   0.246141E-05   0.321402E-05   0.381612E+00   0.484271E+01
   0.460000E+03   0.258222E-05   0.337322E-05   0.381624E+00   0.484271E+01
   0.470000E+03   0.269955E-05   0.352900E-05   0.381635E+00   0.484271E+01
   0.480000E+03   0.281262E-05   0.368054E-05   0.381646E+00   0.484271E+01
   0.490000E+03   0.292072E-05   0.382707E-05   0.381656E+00   0.484271E+01
   0.500000E+03   0.302318E-05   0.396788E-05   0.381665E+00   0.484271E+01
   0.510000E+03   0.311942E-05   0.410234E-05   0.381675E+00   0.484271E+01
   0.520000E+03   0.320893E-05   0.422992E-05   0.381683E+00   0.484271E+01
   0.530000E+03   0.329128E-05   0.435016E-05   0.381692E+00   0.484271E+01
   0.540000E+03   0.336616E-05   0.446272E-05   0.381700E+00   0.484271E+01
   0.550000E+03   0.343336E-05   0.456738E-05   0.381708E+00   0.484271E+01
   0.560000E+03   0.349273E-05   0.466400E-05   0.381716E+00   0.484271E+01
   0.570000E+03   0.354426E-05   0.475254E-05   0.381724E+00   0.484271E+01
   0.580000E+03   0.358798E-05   0.483305E-05   0.381731E+00   0.484271E+01
   0.590000E+03   0.362402E-05   0.490566E-05   0.381738E+00   0.484271E+01
   0.600000E+03   0.365254E-05   0.497058E-05   0.381745E+00   0.484271E+01
   0.610000E+03   0.367379E-05   0.502807E-05   0.381752E+00   0.484271E+01
   0.620000E+03   0.368804E-05   0.507843E-05   0.381759E+00   0.484271E+01
   0.630000E+03   0.369560E-05   0.512200E-05   0.381765E+00   0.484271E+01
   0.640000E+03   0.369684E-05   0.515918E-05   0.381771E+00   0.484271E+01
   0.650000E+03   0.369215E-05   0.519038E-05   0.381777E+00   0.484271E+01
   0.660000E+03   0.368198E-05   0.521604E-05   0.381783E+00   0.484271E+01
   0.670000E+03   0.366681E-05   0.523665E-05   0.381789E+00   0.484271E+01
   0.680000E+03   0.364721E-05   0.531815E-05   0.381794E+00   0.484271E+01
   0.690000E+03   0.362375E-05   0.540941E-05   0.381799E+00   0.484271E+01
   0.700000E+03   0.359712E-05   0.549895E-05   0.381804E+00   0.484271E+01
   0.710000E+03   0.356800E-05   0.558698E-05   0.381809E+00   0.484271E+01
   0.720000E+03   0.353718E-05   0.567374E-05   0.381814E+00   0.484271E+01
   0.730000E+03   0.350546E-05   0.575948E-05   0.381819E+00   0.484271E+01
   0.740000E+03   0.347369E-05   0.584445E-05   0.381824E+00   0.484271E+01
   0.750000E+03   0.344275E-05   0.592893E-05   0.381828E+00   0.484271E+01
   0.760000E+03   0.341355E-05   0.601318E-05   0.381833E+00   0.484271E+01
   0.770000E+03   0.338700E-05   0.609747E-05   0.381837E+00   0.484271E+01
   0.780000E+03   0.336401E-05   0.622758E-05   0.381842E+00   0.484271E+01
   0.790000E+03   0.334551E-05   0.636906E-05   0.381846E+00   0.484271E+01
   0.800000E+03   0.333238E-05   0.651054E-05   0.381850E+00   0.484271E+01
   0.810000E+03   0.332550E-05   0.665205E-05   0.381855E+00   0.484271E+01
   0.820000E+03   0.332572E-05   0.679361E-05   0.381859E+00   0.484271E+01
   0.830000E+03   0.333384E-05   0.693528E-05   0.381863E+00   0.484271E+01
   0.840000E+03   0.335064E-05   0.707710E-05   0.381867E+00   0.484271E+01
   0.850000E+03   0.337684E-05   0.721911E-05   0.381870E+00   0.484271E+01
   0.860000E+03   0.341312E-05   0.736135E-05   0.381874E+00   0.484271E+01
   0.870000E+03   0.346009E-05   0.750388E-05   0.381878E+00   0.484271E+01
   0.880000E+03   0.351834E-05   0.764675E-05   0.381881E+00   0.484271E+01
   0.890000E+03   0.358836E-05   0.778999E-05   0.381885E+00   0.484271E+01
   0.900000E+03   0.367062E-05   0.793366E-05   0.381888E+00   0.484271E+01
   0.910000E+03   0.376552E-05   0.807781E-05   0.381892E+00   0.484271E+01
   0.920000E+03   0.387339E-05   0.822246E-05   0.381895E+00   0.484271E+01
   0.930000E+03   0.399453E-05   0.836767E-05   0.381898E+00   0.484271E+01
   0.940000E+03   0.412914E-05   0.851347E-05   0.381902E+00   0.484271E+01
   0.950000E+03   0.427742E-05   0.865991E-05   0.381905E+00   0.484271E+01
   0.960000E+03   0.443946E-05   0.880700E-05   0.381908E+00   0.484271E+01
   0.970000E+03   0.461536E-05   0.895479E-05   0.381911E+00   0.484271E+01
   0.980000E+03   0.480513E-05   0.910330E-05   0.381914E+00   0.484271E+01
   0.990000E+03   0.500876E-05   0.925256E-05   0.381917E+00   0.484271E+01
   0.100000E+04   0.522618E-05   0.940260E-05   0.381920E+00   0.484271E+01
   0.101000E+04   0.545733E-05   0.955344E-05   0.381923E+00   0.484271E+01
   0.102000E+04   0.570210E-05   0.970510E-05   0.381926E+00   0.484271E+01
   0.103000E+04   0.596034E-05   0.985760E-05   0.381929E+00   0.484271E+01
   0.104000E+04   0.623193E-05   0.100110E-04   0.381932E+00   0.484271E+01
   0.105000E+04   0.651670E-05   0.101652E-04   0.381935E+00   0.484271E+01
   0.106000E+04   0.681450E-05   0.103204E-04   0.381937E+00   0.484271E+01
   0.107000E+04   0.712518E-05   0.104764E-04   0.381940E+00   0.484271E+01
   0.108000E+04   0.744858E-05   0.106335E-04   0.381943E+00   0.484271E+01
   0.109000E+04   0.778456E-05   0.107914E-04   0.381945E+00   0.484271E+01
   0.110000E+04   0.813297E-05   0.109504E-04   0.381948E+00   0.484271E+01
   0.111000E+04   0.849368E-05   0.111104E-04   0.381950E+00   0.484271E+01
   0.112000E+04   0.886658E-05   0.112715E-04   0.381953E+00   0.484271E+01
   0.113000E+04   0.925155E-05   0.114336E-04   0.381955E+00   0.484271E+01
   0.114000E+04   0.964849E-05   0.115967E-04   0.381957E+00   0.484271E+01
   0.115000E+04   0.100573E-04   0.117610E-04   0.381960E+00   0.484271E+01
   0.116000E+04   0.104779E-04   0.119264E-04   0.381962E+00   0.484271E+01
   0.117000E+04   0.109102E-04   0.120929E-04   0.381964E+00   0.484271E+01
   0.118000E+04   0.113541E-04   0.122607E-04   0.381966E+00   0.484271E+01
   0.119000E+04   0.118096E-04   0.124295E-04   0.381968E+00   0.484271E+01
   0.120000E+04   0.122765E-04   0.125996E-04   0.381970E+00   0.484271E+01
   0.121000E+04   0.127548E-04   0.134283E-04   0.381972E+00   0.484271E+01
   0.122000E+04   0.132443E-04   0.144613E-04   0.381974E+00   0.484271E+01
   0.123000E+04   0.137451E-04   0.155206E-04   0.381976E+00   0.484271E+01
   0.124000E+04   0.142570E-04   0.166057E-04   0.381978E+00   0.484271E+01
   0.125000E+04   0.147798E-04   0.177164E-04   0.381980E+00   0.484271E+01
   0.126000E+04   0.153135E-04   0.188525E-04   0.381982E+00   0.484271E+01
   0.127000E+04   0.158579E-04   0.200136E-04   0.381984E+00   0.484271E+01
   0.128000E+04   0.164130E-04   0.211994E-04   0.381986E+00   0.484271E+01
   0.129000E+04   0.169784E-04   0.224095E-04   0.381988E+00   0.484271E+01
   0.130000E+04   0.175541E-04   0.236435E-04   0.381989E+00   0.484271E+01
   0.131000E+04   0.181400E-04   0.249012E-04   0.381991E+00   0.484271E+01
   0.132000E+04   0.187357E-04   0.261821E-04   0.381993E+00   0.484271E+01
   0.133000E+04   0.193412E-04   0.274857E-04   0.381995E+00   0.484271E+01
   0.134000E+04   0.199562E-04   0.288116E-04   0.381996E+00   0.484271E+01
   0.135000E+04   0.205805E-04   0.301593E-04   0.381998E+00   0.484271E+01
   0.136000E+04   0.212138E-04   0.315283E-04   0.382000E+00   0.484271E+01
   0.137000E+04   0.218561E-04   0.329182E-04   0.382001E+00   0.484271E+01
   0.138000E+04   0.225070E-04   0.343284E-04   0.382003E+00   0.484271E+01
   0.139000E+04   0.231663E-04   0.357584E-04   0.382004E+00   0.484271E+01
   0.140000E+04   0.238337E-04   0.372076E-04   0.382006E+00   0.484271E+01
   0.141000E+04   0.245090E-04   0.386754E-04   0.382007E+00   0.484271E+01
   0.142000E+04   0.251920E-04   0.401613E-04   0.382009E+00   0.484271E+01
   0.143000E+04   0.258824E-04   0.416647E-04   0.382010E+00   0.484271E+01
   0.144000E+04   0.265800E-04   0.431850E-04   0.382012E+00   0.484271E+01
   0.145000E+04   0.272845E-04   0.447215E-04   0.382013E+00   0.484271E+01
   0.146000E+04   0.279956E-04   0.462738E-04   0.382014E+00   0.484271E+01
   0.147000E+04   0.287131E-04   0.478412E-04   0.382016E+00   0.484271E+01
   0.148000E+04   0.294368E-04   0.494230E-04   0.382017E+00   0.484271E+01
   0.149000E+04   0.301664E-04   0.510188E-04   0.382018E+00   0.484271E+01
   0.150000E+04   0.309016E-04   0.526279E-04   0.382019E+00   0.484271E+01
   0.151000E+04   0.316423E-04   0.542498E-04   0.382020E+00   0.484271E+01
   0.152000E+04   0.323882E-04   0.558839E-04   0.382022E+00   0.484271E+01
   0.153000E+04   0.331390E-04   0.575295E-04   0.382023E+00   0.484271E+01
   0.154000E+04   0.338946E-04   0.591863E-04   0.382024E+00   0.484271E+01
   0.155000E+04   0.346548E-04   0.608537E-04   0.382025E+00   0.484271E+01
   0.156000E+04   0.354192E-04   0.625311E-04   0.382026E+00   0.484271E+01
   0.157000E+04   0.361878E-04   0.642182E-04   0.382027E+00   0.484271E+01
   0.158000E+04   0.369604E-04   0.659144E-04   0.382028E+00   0.484271E+01
   0.159000E+04   0.377368E-04   0.676193E-04   0.382029E+00   0.484271E+01
   0.160000E+04   0.385167E-04   0.693326E-04   0.382030E+00   0.484271E+01
   0.161000E+04   0.393001E-04   0.710537E-04   0.382031E+00   0.484271E+01
   0.162000E+04   0.400869E-04   0.727825E-04   0.382032E+00   0.484271E+01
   0.163000E+04   0.408767E-04   0.745184E-04   0.382033E+00   0.484271E+01
   0.164000E+04   0.416696E-04   0.762614E-04   0.382034E+00   0.484271E+01
   0.165000E+04   0.424654E-04   0.780109E-04   0.382035E+00   0.484271E+01
   0.166000E+04   0.432639E-04   0.797669E-04   0.382036E+00   0.484271E+01
   0.167000E+04   0.440651E-04   0.815290E-04   0.382036E+00   0.484271E+01
   0.168000E+04   0.448689E-04   0.832970E-04   0.382037E+00   0.484271E+01
   0.169000E+04   0.456751E-04   0.850708E-04   0.382038E+00   0.484271E+01
   0.170000E+04   0.464836E-04   0.868501E-04   0.382039E+00   0.484271E+01
   0.171000E+04   0.472943E-04   0.886347E-04   0.382040E+00   0.484271E+01
   0.172000E+04   0.481072E-04   0.904245E-04   0.382040E+00   0.484271E+01
   0.173000E+04   0.489222E-04   0.922192E-04   0.382041E+00   0.484271E+01
   0.174000E+04   0.497391E-04   0.940189E-04   0.382042E+00   0.484271E+01
   0.175000E+04   0.505578E-04   0.958232E-04   0.382042E+00   0.484271E+01
   0.176000E+04   0.513783E-04   0.976320E-04   0.382043E+00   0.484271E+01
   0.177000E+04   0.522005E-04   0.994452E-04   0.382044E+00   0.484271E+01
   0.178000E+04   0.530242E-04   0.101263E-03   0.382044E+00   0.484271E+01
   0.179000E+04   0.538493E-04   0.103084E-03   0.382045E+00   0.484271E+01
   0.180000E+04   0.546758E-04   0.104909E-03   0.382045E+00   0.484271E+01
   0.181000E+04   0.555036E-04   0.106738E-03   0.382046E+00   0.484271E+01
   0.182000E+04   0.563324E-04   0.108570E-03   0.382046E+00   0.484271E+01
   0.183000E+04   0.571622E-04   0.110406E-03   0.382047E+00   0.484271E+01
   0.184000E+04   0.579929E-04   0.112244E-03   0.382047E+00   0.484271E+01
   0.185000E+04   0.588243E-04   0.114085E-03   0.382048E+00   0.484271E+01
   0.186000E+04   0.596563E-04   0.115928E-03   0.382048E+00   0.484271E+01
   0.187000E+04   0.604889E-04   0.117774E-03   0.382049E+00   0.484271E+01
   0.188000E+04   0.613218E-04   0.119621E-03   0.382049E+00   0.484271E+01
   0.189000E+04   0.621549E-04   0.121470E-03   0.382050E+00   0.484271E+01
   0.190000E+04   0.629882E-04   0.123320E-03   0.382050E+00   0.484271E+01
   0.191000E+04   0.638214E-04   0.125170E-03   0.382050E+00   0.484271E+01
   0.192000E+04   0.646545E-04   0.127022E-03   0.382051E+00   0.484271E+01
   0.193000E+04   0.654874E-04   0.128873E-03   0.382051E+00   0.484271E+01
   0.194000E+04   0.663199E-04   0.130725E-03   0.382051E+00   0.484271E+01
   0.195000E+04   0.671519E-04   0.132576E-03   0.382052E+00   0.484271E+01
   0.196000E+04   0.679833E-04   0.134426E-03   0.382052E+00   0.484271E+01
   0.197000E+04   0.688140E-04   0.136275E-03   0.382052E+00   0.484271E+01
   0.198000E+04   0.696439E-04   0.138123E-03   0.382053E+00   0.484271E+01
   0.199000E+04   0.704729E-04   0.139969E-03   0.382053E+00   0.484271E+01
   0.200000E+04   0.713009E-04   0.141813E-03   0.382053E+00   0.484271E+01
   0.201000E+04   0.721278E-04   0.143655E-03   0.382053E+00   0.484271E+01
   0.202000E+04   0.729535E-04   0.145495E-03   0.382054E+00   0.484271E+01
   0.203000E+04   0.737780E-04   0.147332E-03   0.382054E+00   0.484271E+01
   0.204000E+04   0.746010E-04   0.149166E-03   0.382054E+00   0.484271E+01
   0.205000E+04   0.754227E-04   0.150997E-03   0.382054E+00   0.484271E+01
   0.206000E+04   0.762429E-04   0.152824E-03   0.382055E+00   0.484271E+01
   0.207000E+04   0.770615E-04   0.154649E-03   0.382055E+00   0.484271E+01
   0.208000E+04   0.778785E-04   0.156469E-03   0.382055E+00   0.484271E+01
   0.209000E+04   0.786938E-04   0.158286E-03   0.382055E+00   0.484271E+01
   0.210000E+04   0.795073E-04   0.160099E-03   0.382055E+00   0.484271E+01
   0.211000E+04   0.803191E-04   0.161908E-03   0.382056E+00   0.484271E+01
   0.212000E+04   0.811291E-04   0.163713E-03   0.382056E+00   0.484271E+01
   0.213000E+04   0.819372E-04   0.165514E-03   0.382056E+00   0.484271E+01
   0.214000E+04   0.827434E-04   0.167310E-03   0.382056E+00   0.484271E+01
   0.215000E+04   0.835477E-04   0.169103E-03   0.382056E+00   0.484271E+01
   0.216000E+04   0.843500E-04   0.170890E-03   0.382057E+00   0.484271E+01
   0.217000E+04   0.851503E-04   0.172673E-03   0.382057E+00   0.484271E+01
   0.218000E+04   0.859486E-04   0.174452E-03   0.382057E+00   0.484271E+01
   0.219000E+04   0.867448E-04   0.176226E-03   0.382057E+00   0.484271E+01
   0.220000E+04   0.875389E-04   0.177996E-03   0.382058E+00   0.484271E+01
   0.221000E+04   0.883310E-04   0.179760E-03   0.382058E+00   0.484271E+01
   0.222000E+04   0.891209E-04   0.181521E-03   0.382058E+00   0.484271E+01
   0.223000E+04   0.899087E-04   0.183276E-03   0.382058E+00   0.484271E+01
   0.224000E+04   0.906943E-04   0.185026E-03   0.382058E+00   0.484271E+01
   0.225000E+04   0.914778E-04   0.186772E-03   0.382059E+00   0.484271E+01
   0.226000E+04   0.922590E-04   0.188513E-03   0.382059E+00   0.484271E+01
   0.227000E+04   0.930381E-04   0.190249E-03   0.382059E+00   0.484271E+01
   0.228000E+04   0.938150E-04   0.191981E-03   0.382059E+00   0.484271E+01
   0.229000E+04   0.945896E-04   0.193707E-03   0.382059E+00   0.484271E+01
   0.230000E+04   0.953621E-04   0.195429E-03   0.382060E+00   0.484271E+01
   0.231000E+04   0.961323E-04   0.197145E-03   0.382060E+00   0.484271E+01
   0.232000E+04   0.969002E-04   0.198857E-03   0.382060E+00   0.484271E+01
   0.233000E+04   0.976659E-04   0.200564E-03   0.382060E+00   0.484271E+01
   0.234000E+04   0.984294E-04   0.202266E-03   0.382060E+00   0.484271E+01
   0.235000E+04   0.991906E-04   0.203963E-03   0.382061E+00   0.484271E+01
   0.236000E+04   0.999495E-04   0.205655E-03   0.382061E+00   0.484271E+01
   0.237000E+04   0.100706E-03   0.207342E-03   0.382061E+00   0.484271E+01
   0.238000E+04   0.101461E-03   0.209024E-03   0.382061E+00   0.484271E+01
   0.239000E+04   0.102213E-03   0.210701E-03   0.382062E+00   0.484271E+01
   0.240000E+04   0.102963E-03   0.212374E-03   0.382062E+00   0.484271E+01
   0.241000E+04   0.103711E-03   0.214041E-03   0.382062E+00   0.484271E+01
   0.242000E+04   0.104456E-03   0.215704E-03   0.382062E+00   0.484271E+01
   0.243000E+04   0.105199E-03   0.217361E-03   0.382062E+00   0.484271E+01
   0.244000E+04   0.105940E-03   0.219014E-03   0.382063E+00   0.484271E+01
   0.245000E+04   0.106679E-03   0.220662E-03   0.382063E+00   0.484271E+01
   0.246000E+04   0.107415E-03   0.222305E-03   0.382063E+00   0.484271E+01
   0.247000E+04   0.108150E-03   0.223943E-03   0.382063E+00   0.484271E+01
   0.248000E+04   0.108882E-03   0.225576E-03   0.382063E+00   0.484271E+01
   0.249000E+04   0.109612E-03   0.227204E-03   0.382064E+00   0.484271E+01
   0.250000E+04   0.110339E-03   0.228827E-03   0.382064E+00   0.484271E+01
   0.251000E+04   0.111065E-03   0.230446E-03   0.382064E+00   0.484271E+01
   0.252000E+04   0.111788E-03   0.232060E-03   0.382064E+00   0.484271E+01
   0.253000E+04   0.112509E-03   0.233668E-03   0.382065E+00   0.484271E+01
   0.254000E+04   0.113227E-03   0.235272E-03   0.382065E+00   0.484271E+01
   0.255000E+04   0.113944E-03   0.236871E-03   0.382065E+00   0.484271E+01
   0.256000E+04   0.114658E-03   0.238466E-03   0.382065E+00   0.484271E+01
   0.257000E+04   0.115370E-03   0.240055E-03   0.382065E+00   0.484271E+01
   0.258000E+04   0.116080E-03   0.241640E-03   0.382066E+00   0.484271E+01
   0.259000E+04   0.116788E-03   0.243219E-03   0.382066E+00   0.484271E+01
   0.260000E+04   0.117493E-03   0.244794E-03   0.382066E+00   0.484271E+01
   0.261000E+04   0.118196E-03   0.246365E-03   0.382066E+00   0.484271E+01
   0.262000E+04   0.118897E-03   0.247930E-03   0.382067E+00   0.484271E+01
   0.263000E+04   0.119596E-03   0.249490E-03   0.382067E+00   0.484271E+01
   0.264000E+04   0.120292E-03   0.251046E-03   0.382067E+00   0.484271E+01
   0.265000E+04   0.120987E-03   0.252597E-03   0.382067E+00   0.484271E+01
   0.266000E+04   0.121679E-03   0.254142E-03   0.382068E+00   0.484271E+01
   0.267000E+04   0.122368E-03   0.255683E-03   0.382068E+00   0.484271E+01
   0.268000E+04   0.123056E-03   0.257219E-03   0.382068E+00   0.484271E+01
   0.269000E+04   0.123741E-03   0.258751E-03   0.382068E+00   0.484271E+01
   0.270000E+04   0.124424E-03   0.260277E-03   0.382069E+00   0.484271E+01
   0.271000E+04   0.125104E-03   0.261798E-03   0.382069E+00   0.484271E+01
   0.272000E+04   0.125782E-03   0.263314E-03   0.382069E+00   0.484271E+01
   0.273000E+04   0.126458E-03   0.264825E-03   0.382069E+00   0.484271E+01
   0.274000E+04   0.127131E-03   0.266331E-03   0.382070E+00   0.484271E+01
   0.275000E+04   0.127802E-03   0.267832E-03   0.382070E+00   0.484271E+01
   0.276000E+04   0.128471E-03   0.269328E-03   0.382070E+00   0.484271E+01
   0.277000E+04   0.129137E-03   0.270819E-03   0.382070E+00   0.484271E+01
   0.278000E+04   0.129800E-03   0.272304E-03   0.382071E+00   0.484271E+01
   0.279000E+04   0.130461E-03   0.273784E-03   0.382071E+00   0.484271E+01
   0.280000E+04   0.131120E-03   0.275259E-03   0.382071E+00   0.484271E+01
   0.281000E+04   0.131776E-03   0.276728E-03   0.382071E+00   0.484271E+01
   0.282000E+04   0.132429E-03   0.278192E-03   0.382072E+00   0.484271E+01
   0.283000E+04   0.133080E-03   0.279651E-03   0.382072E+00   0.484271E+01
   0.284000E+04   0.133728E-03   0.281104E-03   0.382072E+00   0.484271E+01
   0.285000E+04   0.134374E-03   0.282552E-03   0.382072E+00   0.484271E+01
   0.286000E+04   0.135017E-03   0.283994E-03   0.382073E+00   0.484271E+01
   0.287000E+04   0.135657E-03   0.285430E-03   0.382073E+00   0.484271E+01
   0.288000E+04   0.136295E-03   0.286861E-03   0.382073E+00   0.484271E+01
   0.289000E+04   0.136930E-03   0.288286E-03   0.382073E+00   0.484271E+01
   0.290000E+04   0.137562E-03   0.289705E-03   0.382074E+00   0.484271E+01
   0.291000E+04   0.138191E-03   0.291119E-03   0.382074E+00   0.484271E+01
   0.292000E+04   0.138818E-03   0.292527E-03   0.382074E+00   0.484271E+01
   0.293000E+04   0.139442E-03   0.293929E-03   0.382074E+00   0.484271E+01
   0.294000E+04   0.140063E-03   0.295326E-03   0.382075E+00   0.484271E+01
   0.295000E+04   0.140681E-03   0.296716E-03   0.382075E+00   0.484271E+01
   0.296000E+04   0.141296E-03   0.298101E-03   0.382075E+00   0.484271E+01
   0.297000E+04   0.141909E-03   0.299480E-03   0.382075E+00   0.484271E+01
   0.298000E+04   0.142519E-03   0.300854E-03   0.382075E+00   0.484271E+01
   0.299000E+04   0.143126E-03   0.302221E-03   0.382076E+00   0.484271E+01
   0.300000E+04   0.143730E-03   0.303583E-03   0.382076E+00   0.484271E+01
   0.301000E+04   0.144332E-03   0.304939E-03   0.382076E+00   0.484271E+01
   0.302000E+04   0.144931E-03   0.306290E-03   0.382076E+00   0.484271E+01
   0.303000E+04   0.145527E-03   0.307634E-03   0.382076E+00   0.484271E+01
   0.304000E+04   0.146120E-03   0.308973E-03   0.382076E+00   0.484271E+01
   0.305000E+04   0.146710E-03   0.310306E-03   0.382077E+00   0.484271E+01
   0.306000E+04   0.147297E-03   0.311634E-03   0.382077E+00   0.484271E+01
   0.307000E+04   0.147882E-03   0.312955E-03   0.382077E+00   0.484271E+01
   0.308000E+04   0.148463E-03   0.314271E-03   0.382077E+00   0.484271E+01
   0.309000E+04   0.149042E-03   0.315581E-03   0.382077E+00   0.484271E+01
   0.310000E+04   0.149618E-03   0.316886E-03   0.382077E+00   0.484271E+01
   0.311000E+04   0.150191E-03   0.318185E-03   0.382078E+00   0.484271E+01
   0.312000E+04   0.150761E-03   0.319478E-03   0.382078E+00   0.484271E+01
   0.313000E+04   0.151329E-03   0.320765E-03   0.382078E+00   0.484271E+01
   0.314000E+04   0.151893E-03   0.322047E-03   0.382078E+00   0.484271E+01
   0.315000E+04   0.152455E-03   0.323323E-03   0.382078E+00   0.484271E+01
   0.316000E+04   0.153013E-03   0.324593E-03   0.382078E+00   0.484271E+01
   0.317000E+04   0.153569E-03   0.325858E-03   0.382078E+00   0.484271E+01
   0.318000E+04   0.154121E-03   0.327116E-03   0.382078E+00   0.484271E+01
   0.319000E+04   0.154671E-03   0.328370E-03   0.382078E+00   0.484271E+01
   0.320000E+04   0.155218E-03   0.329617E-03   0.382078E+00   0.484271E+01
   0.321000E+04   0.155762E-03   0.330859E-03   0.382079E+00   0.484271E+01
   0.322000E+04   0.156303E-03   0.332096E-03   0.382079E+00   0.484271E+01
   0.323000E+04   0.156840E-03   0.333326E-03   0.382079E+00   0.484271E+01
   0.324000E+04   0.157375E-03   0.334551E-03   0.382079E+00   0.484271E+01
   0.325000E+04   0.157907E-03   0.335771E-03   0.382079E+00   0.484271E+01
   0.326000E+04   0.158436E-03   0.336985E-03   0.382079E+00   0.484271E+01
   0.327000E+04   0.158962E-03   0.338193E-03   0.382079E+00   0.484271E+01
   0.328000E+04   0.159485E-03   0.339396E-03   0.382079E+00   0.484271E+01
   0.329000E+04   0.160005E-03   0.340594E-03   0.382079E+00   0.484271E+01
   0.330000E+04   0.160522E-03   0.341786E-03   0.382079E+00   0.484271E+01
   0.331000E+04   0.161037E-03   0.342973E-03   0.382079E+00   0.484271E+01
   0.332000E+04   0.161548E-03   0.344155E-03   0.382079E+00   0.484271E+01
   0.333000E+04   0.162057E-03   0.345331E-03   0.382079E+00   0.484271E+01
   0.334000E+04   0.162562E-03   0.346502E-03   0.382079E+00   0.484271E+01
   0.335000E+04   0.163065E-03   0.347668E-03   0.382079E+00   0.484271E+01
   0.336000E+04   0.163565E-03   0.348829E-03   0.382079E+00   0.484271E+01
   0.337000E+04   0.164062E-03   0.349985E-03   0.382079E+00   0.484271E+01
   0.338000E+04   0.164557E-03   0.351136E-03   0.382079E+00   0.484271E+01
   0.339000E+04   0.165048E-03   0.352282E-03   0.382079E+00   0.484271E+01
   0.340000E+04   0.165537E-03   0.353423E-03   0.382079E+00   0.484271E+01
   0.341000E+04   0.166024E-03   0.354560E-03   0.382079E+00   0.484271E+01
   0.342000E+04   0.166508E-03   0.355691E-03   0.382079E+00   0.484271E+01
   0.343000E+04   0.166989E-03   0.356819E-03   0.382079E+00   0.484271E+01
   0.344000E+04   0.167467E-03   0.357941E-03   0.382079E+00   0.484271E+01
   0.345000E+04   0.167944E-03   0.359059E-03   0.382079E+00   0.484271E+01
   0.346000E+04   0.168417E-03   0.360173E-03   0.382079E+00   0.484271E+01
   0.347000E+04   0.168888E-03   0.361282E-03   0.382079E+00   0.484271E+01
   0.348000E+04   0.169357E-03   0.362387E-03   0.382079E+00   0.484271E+01
   0.349000E+04   0.169824E-03   0.363488E-03   0.382079E+00   0.484271E+01
   0.350000E+04   0.170288E-03   0.364585E-03   0.382080E+00   0.484271E+01
   0.351000E+04   0.170750E-03   0.365678E-03   0.382080E+00   0.484271E+01
   0.352000E+04   0.171209E-03   0.366766E-03   0.382080E+00   0.484271E+01
   0.353000E+04   0.171666E-03   0.367851E-03   0.382080E+00   0.484271E+01
   0.354000E+04   0.172122E-03   0.368932E-03   0.382080E+00   0.484271E+01
   0.355000E+04   0.172575E-03   0.370008E-03   0.382080E+00   0.484271E+01
   0.356000E+04   0.173026E-03   0.371081E-03   0.382080E+00   0.484271E+01
   0.357000E+04   0.173475E-03   0.372151E-03   0.382080E+00   0.484271E+01
   0.358000E+04   0.173922E-03   0.373217E-03   0.382080E+00   0.484271E+01
   0.359000E+04   0.174367E-03   0.374279E-03   0.382080E+00   0.484271E+01
   0.360000E+04   0.174809E-03   0.375337E-03   0.382080E+00   0.484271E+01
   0.361000E+04   0.175251E-03   0.376392E-03   0.382080E+00   0.484271E+01
   0.362000E+04   0.175690E-03   0.377443E-03   0.382080E+00   0.484271E+01
   0.363000E+04   0.176127E-03   0.378491E-03   0.382080E+00   0.484271E+01
   0.364000E+04   0.176562E-03   0.379536E-03   0.382080E+00   0.484271E+01
   0.365000E+04   0.176996E-03   0.380577E-03   0.382081E+00   0.484271E+01
   0.366000E+04   0.177428E-03   0.381615E-03   0.382081E+00   0.484271E+01
   0.367000E+04   0.177858E-03   0.382650E-03   0.382081E+00   0.484271E+01
   0.368000E+04   0.178286E-03   0.383681E-03   0.382081E+00   0.484271E+01
   0.369000E+04   0.178713E-03   0.384709E-03   0.382081E+00   0.484271E+01
   0.370000E+04   0.179138E-03   0.385734E-03   0.382081E+00   0.484271E+01
   0.371000E+04   0.179561E-03   0.386756E-03   0.382081E+00   0.484271E+01
   0.372000E+04   0.179983E-03   0.387775E-03   0.382081E+00   0.484271E+01
   0.373000E+04   0.180403E-03   0.388790E-03   0.382081E+00   0.484271E+01
   0.374000E+04   0.180821E-03   0.389803E-03   0.382081E+00   0.484271E+01
   0.375000E+04   0.181238E-03   0.390812E-03   0.382081E+00   0.484271E+01
   0.376000E+04   0.181653E-03   0.391818E-03   0.382081E+00   0.484271E+01
   0.377000E+04   0.182067E-03   0.392822E-03   0.382082E+00   0.484271E+01
   0.378000E+04   0.182479E-03   0.393822E-03   0.382082E+00   0.484271E+01
   0.379000E+04   0.182890E-03   0.394819E-03   0.382082E+00   0.484271E+01
   0.380000E+04   0.183299E-03   0.395813E-03   0.382082E+00   0.484271E+01
   0.381000E+04   0.183706E-03   0.396804E-03   0.382082E+00   0.484271E+01
   0.382000E+04   0.184112E-03   0.397792E-03   0.382082E+00   0.484271E+01
   0.383000E+04   0.184517E-03   0.398777E-03   0.382082E+00   0.484271E+01
   0.384000E+04   0.184920E-03   0.399760E-03   0.382082E+00   0.484271E+01
   0.385000E+04   0.185321E-03   0.400739E-03   0.382082E+00   0.484271E+01
   0.386000E+04   0.185722E-03   0.401715E-03   0.382082E+00   0.484271E+01
   0.387000E+04   0.186120E-03   0.402688E-03   0.382083E+00   0.484271E+01
   0.388000E+04   0.186517E-03   0.403658E-03   0.382083E+00   0.484271E+01
   0.389000E+04   0.186913E-03   0.404626E-03   0.382083E+00   0.484271E+01
   0.390000E+04   0.187307E-03   0.405590E-03   0.382083E+00   0.484271E+01
   0.391000E+04   0.187700E-03   0.406551E-03   0.382083E+00   0.484271E+01
   0.392000E+04   0.188091E-03   0.407510E-03   0.382083E+00   0.484271E+01
   0.393000E+04   0.188481E-03   0.408465E-03   0.382083E+00   0.484271E+01