title="breakthrough data set at     5 wells"
variables="time(days)","cavg","cpk","upk","zswi"
zone i=     1295
   0.100000E+02   0.745080E-10   0.115962E-09   0.463001E+00   0.484317E+01
   0.200000E+02   0.148807E-09   0.226453E-09   0.375382E+00   0.482395E+01
   0.300000E+02   0.260613E-09   0.401326E-09   0.375166E+00   0.482395E+01
   0.400000E+02   0.423619E-09   0.663494E-09   0.375265E+00   0.482395E+01
   0.500000E+02   0.655089E-09   0.103801E-08   0.375335E+00   0.482395E+01
   0.600000E+02   0.976660E-09   0.155984E-08   0.375394E+00   0.482395E+01
   0.700000E+02   0.141492E-08   0.227151E-08   0.375450E+00   0.482395E+01
   0.800000E+02   0.200198E-08   0.322379E-08   0.375506E+00   0.482395E+01
   0.900000E+02   0.277592E-08   0.447595E-08   0.375557E+00   0.482395E+01
   0.100000E+03   0.378293E-08   0.609857E-08   0.375561E+00   0.482395E+01
   0.110000E+03   0.507169E-08   0.816403E-08   0.375670E+00   0.482395E+01
   0.120000E+03   0.670185E-08   0.107591E-07   0.375675E+00   0.482395E+01
   0.130000E+03   0.873435E-08   0.139686E-07   0.375731E+00   0.482395E+01
   0.140000E+03   0.112352E-07   0.178809E-07   0.375789E+00   0.482395E+01
   0.150000E+03   0.142728E-07   0.225824E-07   0.375848E+00   0.482395E+01
   0.160000E+03   0.179146E-07   0.281514E-07   0.375906E+00   0.482395E+01
   0.170000E+03   0.222222E-07   0.346497E-07   0.375964E+00   0.482395E+01
   0.180000E+03   0.272458E-07   0.421118E-07   0.376022E+00   0.482395E+01
   0.190000E+03   0.330187E-07   0.505353E-07   0.376080E+00   0.482395E+01
   0.200000E+03   0.395527E-07   0.598727E-07   0.376136E+00   0.482395E+01
   0.210000E+03   0.468354E-07   0.700277E-07   0.376192E+00   0.482395E+01
   0.220000E+03   0.548282E-07   0.808515E-07   0.376247E+00   0.482395E+01
   0.230000E+03   0.634634E-07   0.921403E-07   0.376300E+00   0.482395E+01
   0.240000E+03   0.726415E-07   0.103631E-06   0.376353E+00   0.482395E+01
   0.250000E+03   0.822267E-07   0.114997E-06   0.376405E+00   0.482395E+01
   0.260000E+03   0.920435E-07   0.125839E-06   0.376456E+00   0.482395E+01
   0.270000E+03   0.101875E-06   0.135689E-06   0.376506E+00   0.482395E+01
   0.280000E+03   0.111465E-06   0.144014E-06   0.376555E+00   0.482395E+01
   0.290000E+03   0.120523E-06   0.154194E-06   0.376604E+00   0.482395E+01
   0.300000E+03   0.128733E-06   0.165203E-06   0.376651E+00   0.482395E+01
   0.310000E+03   0.135758E-06   0.175027E-06   0.376698E+00   0.482395E+01
   0.320000E+03   0.141248E-06   0.183297E-06   0.376743E+00   0.482395E+01
   0.330000E+03   0.144834E-06   0.189627E-06   0.376788E+00   0.482395E+01
   0.340000E+03   0.146127E-06   0.200011E-06   0.376831E+00   0.482395E+01
   0.350000E+03   0.144714E-06   0.217469E-06   0.376874E+00   0.482395E+01
   0.360000E+03   0.140143E-06   0.235001E-06   0.376916E+00   0.482395E+01
   0.370000E+03   0.131927E-06   0.252377E-06   0.376958E+00   0.482395E+01
   0.380000E+03   0.119535E-06   0.269337E-06   0.376998E+00   0.482395E+01
   0.390000E+03   0.102399E-06   0.285593E-06   0.377039E+00   0.482395E+01
   0.400000E+03   0.799243E-07   0.300832E-06   0.377078E+00   0.482395E+01
   0.410000E+03   0.514908E-07   0.314716E-06   0.377117E+00   0.482395E+01
   0.420000E+03   0.164626E-07   0.326882E-06   0.377155E+00   0.482395E+01
   0.430000E+03  -0.258099E-07   0.336945E-06   0.377192E+00   0.482395E+01
   0.440000E+03  -0.759887E-07   0.344493E-06   0.377228E+00   0.482395E+01
   0.450000E+03  -0.134747E-06   0.349097E-06   0.377264E+00   0.482395E+01
   0.460000E+03  -0.202768E-06   0.350310E-06   0.377299E+00   0.482395E+01
   0.470000E+03  -0.280740E-06   0.347672E-06   0.377334E+00   0.482395E+01
   0.480000E+03  -0.369354E-06   0.350582E-06   0.377368E+00   0.482395E+01
   0.490000E+03  -0.469289E-06   0.371437E-06   0.377401E+00   0.482395E+01
   0.500000E+03  -0.581202E-06   0.392080E-06   0.377433E+00   0.482395E+01
   0.510000E+03  -0.705711E-06   0.412385E-06   0.377465E+00   0.482395E+01
   0.520000E+03  -0.843378E-06   0.432230E-06   0.377497E+00   0.482395E+01
   0.530000E+03  -0.994694E-06   0.451501E-06   0.377528E+00   0.482395E+01
   0.540000E+03  -0.116008E-05   0.470090E-06   0.377559E+00   0.482395E+01
   0.550000E+03  -0.133986E-05   0.487900E-06   0.377590E+00   0.482395E+01
   0.560000E+03  -0.153433E-05   0.504843E-06   0.377620E+00   0.482395E+01
   0.570000E+03  -0.174369E-05   0.520839E-06   0.377650E+00   0.482395E+01
   0.580000E+03  -0.196813E-05   0.535820E-06   0.377679E+00   0.482395E+01
   0.590000E+03  -0.220776E-05   0.549727E-06   0.377708E+00   0.482395E+01
   0.600000E+03  -0.246269E-05   0.562509E-06   0.377737E+00   0.482395E+01
   0.610000E+03  -0.273300E-05   0.574124E-06   0.377765E+00   0.482395E+01
   0.620000E+03  -0.301872E-05   0.584539E-06   0.377793E+00   0.482395E+01
   0.630000E+03  -0.331986E-05   0.593727E-06   0.377820E+00   0.482395E+01
   0.640000E+03  -0.363636E-05   0.601669E-06   0.377847E+00   0.482395E+01
   0.650000E+03  -0.396813E-05   0.608351E-06   0.377873E+00   0.482395E+01
   0.660000E+03  -0.431502E-05   0.613762E-06   0.377900E+00   0.482395E+01
   0.670000E+03  -0.467682E-05   0.617900E-06   0.377925E+00   0.482395E+01
   0.680000E+03  -0.505325E-05   0.620763E-06   0.377950E+00   0.482395E+01
   0.690000E+03  -0.544397E-05   0.622356E-06   0.377975E+00   0.482395E+01
   0.700000E+03  -0.584856E-05   0.622687E-06   0.378000E+00   0.482395E+01
   0.710000E+03  -0.626655E-05   0.621767E-06   0.378024E+00   0.482395E+01
   0.720000E+03  -0.669741E-05   0.619612E-06   0.378048E+00   0.482395E+01
   0.730000E+03  -0.714051E-05   0.616238E-06   0.378071E+00   0.482395E+01
   0.740000E+03  -0.759521E-05   0.611667E-06   0.378094E+00   0.482395E+01
   0.750000E+03  -0.806076E-05   0.605920E-06   0.378116E+00   0.482395E+01
   0.760000E+03  -0.853638E-05   0.599023E-06   0.378139E+00   0.482395E+01
   0.770000E+03  -0.902122E-05   0.590999E-06   0.378160E+00   0.482395E+01
   0.780000E+03  -0.951439E-05   0.581873E-06   0.378182E+00   0.482395E+01
   0.790000E+03  -0.100150E-04   0.571671E-06   0.378203E+00   0.482395E+01
   0.800000E+03  -0.105219E-04   0.560417E-06   0.378223E+00   0.482395E+01
   0.810000E+03  -0.110343E-04   0.548131E-06   0.378244E+00   0.482395E+01
   0.820000E+03  -0.115511E-04   0.534835E-06   0.378264E+00   0.482395E+01
   0.830000E+03  -0.120712E-04   0.520546E-06   0.378283E+00   0.482395E+01
   0.840000E+03  -0.125938E-04   0.505279E-06   0.378302E+00   0.482395E+01
   0.850000E+03  -0.131176E-04   0.489047E-06   0.378321E+00   0.482395E+01
   0.860000E+03  -0.136419E-04   0.471861E-06   0.378340E+00   0.482395E+01
   0.870000E+03  -0.141656E-04   0.453728E-06   0.378358E+00   0.482395E+01
   0.880000E+03  -0.146879E-04   0.434656E-06   0.378376E+00   0.482395E+01
   0.890000E+03  -0.152078E-04   0.414654E-06   0.378393E+00   0.482395E+01
   0.900000E+03  -0.157245E-04   0.393730E-06   0.378411E+00   0.482395E+01
   0.910000E+03  -0.162371E-04   0.371892E-06   0.378427E+00   0.482395E+01
   0.920000E+03  -0.167449E-04   0.349152E-06   0.378444E+00   0.482395E+01
   0.930000E+03  -0.172471E-04   0.325522E-06   0.378460E+00   0.482395E+01
   0.940000E+03  -0.177428E-04   0.301017E-06   0.378476E+00   0.482395E+01
   0.950000E+03  -0.182314E-04   0.275652E-06   0.378492E+00   0.482395E+01
   0.960000E+03  -0.187123E-04   0.249448E-06   0.378507E+00   0.482395E+01
   0.970000E+03  -0.191848E-04   0.222426E-06   0.378522E+00   0.482395E+01
   0.980000E+03  -0.196482E-04   0.194611E-06   0.378537E+00   0.482395E+01
   0.990000E+03  -0.201021E-04   0.166032E-06   0.378551E+00   0.482395E+01
   0.100000E+04  -0.205458E-04   0.136721E-06   0.378565E+00   0.482395E+01
   0.101000E+04  -0.209790E-04   0.106712E-06   0.378579E+00   0.482395E+01
   0.102000E+04  -0.214010E-04   0.760431E-07   0.378593E+00   0.482395E+01
   0.103000E+04  -0.218116E-04   0.447558E-07   0.378606E+00   0.482395E+01
   0.104000E+04  -0.222102E-04   0.128926E-07   0.378620E+00   0.482395E+01
   0.105000E+04  -0.225964E-04  -0.195019E-07   0.378633E+00   0.482395E+01
   0.106000E+04  -0.229700E-04  -0.523824E-07   0.378645E+00   0.482395E+01
   0.107000E+04  -0.233305E-04  -0.857026E-07   0.378658E+00   0.482395E+01
   0.108000E+04  -0.236775E-04  -0.119416E-06   0.378670E+00   0.482395E+01
   0.109000E+04  -0.240109E-04  -0.153478E-06   0.378682E+00   0.482395E+01
   0.110000E+04  -0.243302E-04  -0.187843E-06   0.378693E+00   0.482395E+01
   0.111000E+04  -0.246351E-04  -0.222469E-06   0.378704E+00   0.482395E+01
   0.112000E+04  -0.249254E-04  -0.257311E-06   0.378715E+00   0.482395E+01
   0.113000E+04  -0.252007E-04  -0.292330E-06   0.378726E+00   0.482395E+01
   0.114000E+04  -0.254609E-04  -0.327485E-06   0.378737E+00   0.482395E+01
   0.115000E+04  -0.257056E-04  -0.362737E-06   0.378748E+00   0.482395E+01
   0.116000E+04  -0.259346E-04  -0.398045E-06   0.378758E+00   0.482395E+01
   0.117000E+04  -0.261477E-04  -0.433369E-06   0.378767E+00   0.482395E+01
   0.118000E+04  -0.263447E-04  -0.468669E-06   0.378778E+00   0.482395E+01
   0.119000E+04  -0.265254E-04  -0.503903E-06   0.378788E+00   0.482395E+01
   0.120000E+04  -0.266896E-04  -0.539028E-06   0.378797E+00   0.482395E+01
   0.121000E+04  -0.268372E-04  -0.573995E-06   0.378805E+00   0.482395E+01
   0.122000E+04  -0.269680E-04  -0.608754E-06   0.378815E+00   0.482395E+01
   0.123000E+04  -0.270821E-04  -0.643259E-06   0.378825E+00   0.482395E+01
   0.124000E+04  -0.271792E-04  -0.677459E-06   0.378834E+00   0.482395E+01
   0.125000E+04  -0.272594E-04  -0.711290E-06   0.378841E+00   0.482395E+01
   0.126000E+04  -0.273226E-04  -0.744693E-06   0.378850E+00   0.482395E+01
   0.127000E+04  -0.273689E-04  -0.777616E-06   0.378860E+00   0.482395E+01
   0.128000E+04  -0.273983E-04  -0.810007E-06   0.378869E+00   0.482395E+01
   0.129000E+04  -0.274110E-04  -0.841797E-06   0.378876E+00   0.482395E+01
   0.130000E+04  -0.274068E-04  -0.872925E-06   0.378883E+00   0.482395E+01
   0.131000E+04  -0.273861E-04  -0.903345E-06   0.378893E+00   0.482395E+01
   0.132000E+04  -0.273487E-04  -0.933021E-06   0.378901E+00   0.482395E+01
   0.133000E+04  -0.272949E-04  -0.961898E-06   0.378908E+00   0.482395E+01
   0.134000E+04  -0.272246E-04  -0.989933E-06   0.378914E+00   0.482395E+01
   0.135000E+04  -0.271379E-04  -0.101710E-05   0.378922E+00   0.482395E+01
   0.136000E+04  -0.270339E-04  -0.104295E-05   0.378935E+00   0.482395E+01
   0.137000E+04  -0.269129E-04  -0.106760E-05   0.378943E+00   0.482395E+01
   0.138000E+04  -0.267747E-04  -0.109108E-05   0.378950E+00   0.482395E+01
   0.139000E+04  -0.266193E-04  -0.111343E-05   0.378959E+00   0.482395E+01
   0.140000E+04  -0.264467E-04  -0.113472E-05   0.378965E+00   0.482395E+01
   0.141000E+04  -0.262566E-04  -0.115501E-05   0.378971E+00   0.482395E+01
   0.142000E+04  -0.260491E-04  -0.117435E-05   0.378977E+00   0.482395E+01
   0.143000E+04  -0.258241E-04  -0.119276E-05   0.378983E+00   0.482395E+01
   0.144000E+04  -0.255814E-04  -0.121024E-05   0.378989E+00   0.482395E+01
   0.145000E+04  -0.253212E-04  -0.122682E-05   0.378995E+00   0.482395E+01
   0.146000E+04  -0.250433E-04  -0.124251E-05   0.378998E+00   0.482395E+01
   0.147000E+04  -0.247481E-04  -0.125732E-05   0.379002E+00   0.482395E+01
   0.148000E+04  -0.244354E-04  -0.127125E-05   0.379007E+00   0.482395E+01
   0.149000E+04  -0.241056E-04  -0.128428E-05   0.379013E+00   0.482395E+01
   0.150000E+04  -0.237587E-04  -0.129641E-05   0.379018E+00   0.482395E+01
   0.151000E+04  -0.233949E-04  -0.130761E-05   0.379023E+00   0.482395E+01
   0.152000E+04  -0.230146E-04  -0.131790E-05   0.379025E+00   0.482395E+01
   0.153000E+04  -0.226180E-04  -0.132726E-05   0.379028E+00   0.482395E+01
   0.154000E+04  -0.222053E-04  -0.133569E-05   0.379033E+00   0.482395E+01
   0.155000E+04  -0.217768E-04  -0.134315E-05   0.379038E+00   0.482395E+01
   0.156000E+04  -0.213329E-04  -0.134964E-05   0.379043E+00   0.482395E+01
   0.157000E+04  -0.208739E-04  -0.135513E-05   0.379047E+00   0.482395E+01
   0.158000E+04  -0.204001E-04  -0.135964E-05   0.379048E+00   0.482395E+01
   0.159000E+04  -0.199120E-04  -0.136315E-05   0.379051E+00   0.482395E+01
   0.160000E+04  -0.194100E-04  -0.136567E-05   0.379054E+00   0.482395E+01
   0.161000E+04  -0.188943E-04  -0.136716E-05   0.379059E+00   0.482395E+01
   0.162000E+04  -0.183655E-04  -0.136761E-05   0.379065E+00   0.482395E+01
   0.163000E+04  -0.178240E-04  -0.136702E-05   0.379068E+00   0.482395E+01
   0.164000E+04  -0.172702E-04  -0.136537E-05   0.379069E+00   0.482395E+01
   0.165000E+04  -0.167045E-04  -0.136267E-05   0.379071E+00   0.482395E+01
   0.166000E+04  -0.161274E-04  -0.135892E-05   0.379074E+00   0.482395E+01
   0.167000E+04  -0.155394E-04  -0.135411E-05   0.379078E+00   0.482395E+01
   0.168000E+04  -0.149408E-04  -0.134821E-05   0.379083E+00   0.482395E+01
   0.169000E+04  -0.143320E-04  -0.134122E-05   0.379086E+00   0.482395E+01
   0.170000E+04  -0.137135E-04  -0.133314E-05   0.379087E+00   0.482395E+01
   0.171000E+04  -0.130856E-04  -0.132398E-05   0.379089E+00   0.482395E+01
   0.172000E+04  -0.124486E-04  -0.131373E-05   0.379092E+00   0.482395E+01
   0.173000E+04  -0.118030E-04  -0.130240E-05   0.379095E+00   0.482395E+01
   0.174000E+04  -0.111490E-04  -0.564421E-06   0.379100E+00   0.482395E+01
   0.175000E+04  -0.104869E-04   0.115307E-05   0.379103E+00   0.482395E+01
   0.176000E+04  -0.981699E-05   0.288646E-05   0.379104E+00   0.482395E+01
   0.177000E+04  -0.913949E-05   0.463514E-05   0.379106E+00   0.482395E+01
   0.178000E+04  -0.845466E-05   0.639856E-05   0.379109E+00   0.482395E+01
   0.179000E+04  -0.776267E-05   0.817625E-05   0.379112E+00   0.482395E+01
   0.180000E+04  -0.706370E-05   0.996779E-05   0.379115E+00   0.482395E+01
   0.181000E+04  -0.635793E-05   0.117728E-04   0.379118E+00   0.482395E+01
   0.182000E+04  -0.564553E-05   0.135909E-04   0.379119E+00   0.482395E+01
   0.183000E+04  -0.492664E-05   0.154218E-04   0.379122E+00   0.482395E+01
   0.184000E+04  -0.420139E-05   0.172652E-04   0.379124E+00   0.482395E+01
   0.185000E+04  -0.346989E-05   0.191211E-04   0.379127E+00   0.482395E+01
   0.186000E+04  -0.273224E-05   0.209891E-04   0.379130E+00   0.482395E+01
   0.187000E+04  -0.198856E-05   0.228691E-04   0.379132E+00   0.482395E+01
   0.188000E+04  -0.123898E-05   0.247609E-04   0.379133E+00   0.482395E+01
   0.189000E+04  -0.483613E-06   0.266642E-04   0.379135E+00   0.482395E+01
   0.190000E+04   0.277458E-06   0.285791E-04   0.379138E+00   0.482395E+01
   0.191000E+04   0.104414E-05   0.305052E-04   0.379141E+00   0.482395E+01
   0.192000E+04   0.181636E-05   0.324426E-04   0.379143E+00   0.482395E+01
   0.193000E+04   0.259400E-05   0.343910E-04   0.379146E+00   0.482395E+01
   0.194000E+04   0.337691E-05   0.363502E-04   0.379146E+00   0.482395E+01
   0.195000E+04   0.416499E-05   0.383199E-04   0.379148E+00   0.482395E+01
   0.196000E+04   0.495814E-05   0.403002E-04   0.379151E+00   0.482395E+01
   0.197000E+04   0.575629E-05   0.422908E-04   0.379154E+00   0.482395E+01
   0.198000E+04   0.655933E-05   0.442915E-04   0.379156E+00   0.482395E+01
   0.199000E+04   0.736714E-05   0.463021E-04   0.379158E+00   0.482395E+01
   0.200000E+04   0.817957E-05   0.483223E-04   0.379158E+00   0.482395E+01
   0.201000E+04   0.899648E-05   0.503519E-04   0.379160E+00   0.482395E+01
   0.202000E+04   0.981778E-05   0.523907E-04   0.379162E+00   0.482395E+01
   0.203000E+04   0.106434E-04   0.544384E-04   0.379165E+00   0.482395E+01
   0.204000E+04   0.114731E-04   0.564949E-04   0.379168E+00   0.482395E+01
   0.205000E+04   0.123070E-04   0.585599E-04   0.379170E+00   0.482395E+01
   0.206000E+04   0.131447E-04   0.606330E-04   0.379170E+00   0.482395E+01
   0.207000E+04   0.139862E-04   0.627140E-04   0.379170E+00   0.482395E+01
   0.208000E+04   0.148313E-04   0.648026E-04   0.379172E+00   0.482395E+01
   0.209000E+04   0.156800E-04   0.668985E-04   0.379175E+00   0.482395E+01
   0.210000E+04   0.165321E-04   0.690016E-04   0.379178E+00   0.482395E+01
   0.211000E+04   0.173875E-04   0.711116E-04   0.379180E+00   0.482395E+01
   0.212000E+04   0.182461E-04   0.732280E-04   0.379180E+00   0.482395E+01
   0.213000E+04   0.191077E-04   0.753507E-04   0.379179E+00   0.482395E+01
   0.214000E+04   0.199722E-04   0.774793E-04   0.379181E+00   0.482395E+01
   0.215000E+04   0.208395E-04   0.796136E-04   0.379183E+00   0.482395E+01
   0.216000E+04   0.217096E-04   0.817534E-04   0.379186E+00   0.482395E+01
   0.217000E+04   0.225823E-04   0.838985E-04   0.379188E+00   0.482395E+01
   0.218000E+04   0.234575E-04   0.860485E-04   0.379188E+00   0.482395E+01
   0.219000E+04   0.243350E-04   0.882031E-04   0.379187E+00   0.482395E+01
   0.220000E+04   0.252148E-04   0.903620E-04   0.379188E+00   0.482395E+01
   0.221000E+04   0.260968E-04   0.925251E-04   0.379189E+00   0.482395E+01
   0.222000E+04   0.269809E-04   0.946921E-04   0.379192E+00   0.482395E+01
   0.223000E+04   0.278670E-04   0.968629E-04   0.379195E+00   0.482395E+01
   0.224000E+04   0.287550E-04   0.990373E-04   0.379195E+00   0.482395E+01
   0.225000E+04   0.296449E-04   0.101215E-03   0.379193E+00   0.482395E+01
   0.226000E+04   0.305364E-04   0.103395E-03   0.379193E+00   0.482395E+01
   0.227000E+04   0.314295E-04   0.105578E-03   0.379194E+00   0.482395E+01
   0.228000E+04   0.323242E-04   0.107763E-03   0.379197E+00   0.482395E+01
   0.229000E+04   0.332203E-04   0.109951E-03   0.379199E+00   0.482395E+01
   0.230000E+04   0.341178E-04   0.112141E-03   0.379200E+00   0.482395E+01
   0.231000E+04   0.350165E-04   0.114332E-03   0.379199E+00   0.482395E+01
   0.232000E+04   0.359164E-04   0.116525E-03   0.379198E+00   0.482395E+01
   0.233000E+04   0.368172E-04   0.118718E-03   0.379198E+00   0.482395E+01
   0.234000E+04   0.377188E-04   0.120913E-03   0.379200E+00   0.482395E+01
   0.235000E+04   0.386213E-04   0.123107E-03   0.379202E+00   0.482395E+01
   0.236000E+04   0.395244E-04   0.125302E-03   0.379204E+00   0.482395E+01
   0.237000E+04   0.404279E-04   0.127496E-03   0.379203E+00   0.482395E+01
   0.238000E+04   0.413318E-04   0.129689E-03   0.379202E+00   0.482395E+01
   0.239000E+04   0.422357E-04   0.131880E-03   0.379201E+00   0.482395E+01
   0.240000E+04   0.431395E-04   0.134069E-03   0.379202E+00   0.482395E+01
   0.241000E+04   0.440432E-04   0.136256E-03   0.379205E+00   0.482395E+01
   0.242000E+04   0.449464E-04   0.138440E-03   0.379207E+00   0.482395E+01
   0.243000E+04   0.458489E-04   0.140620E-03   0.379206E+00   0.482395E+01
   0.244000E+04   0.467506E-04   0.142796E-03   0.379205E+00   0.482395E+01
   0.245000E+04   0.476511E-04   0.144966E-03   0.379204E+00   0.482395E+01
   0.246000E+04   0.485503E-04   0.147131E-03   0.379205E+00   0.482395E+01
   0.247000E+04   0.494479E-04   0.149290E-03   0.379207E+00   0.482395E+01
   0.248000E+04   0.503438E-04   0.151442E-03   0.379209E+00   0.482395E+01
   0.249000E+04   0.512376E-04   0.153586E-03   0.379209E+00   0.482395E+01
   0.250000E+04   0.521292E-04   0.155722E-03   0.379207E+00   0.482395E+01
   0.251000E+04   0.530183E-04   0.157849E-03   0.379207E+00   0.482395E+01
   0.252000E+04   0.539047E-04   0.159966E-03   0.379207E+00   0.482395E+01
   0.253000E+04   0.547882E-04   0.162073E-03   0.379208E+00   0.482395E+01
   0.254000E+04   0.556687E-04   0.164170E-03   0.379210E+00   0.482395E+01
   0.255000E+04   0.565458E-04   0.166256E-03   0.379211E+00   0.482395E+01
   0.256000E+04   0.574195E-04   0.168329E-03   0.379210E+00   0.482395E+01
   0.257000E+04   0.582895E-04   0.170391E-03   0.379209E+00   0.482395E+01
   0.258000E+04   0.591558E-04   0.172440E-03   0.379209E+00   0.482395E+01
   0.259000E+04   0.600182E-04   0.174476E-03   0.379210E+00   0.482395E+01
   0.260000E+04   0.608766E-04   0.176498E-03   0.379211E+00   0.482395E+01
   0.261000E+04   0.617309E-04   0.178508E-03   0.379213E+00   0.482395E+01
   0.262000E+04   0.625810E-04   0.180504E-03   0.379212E+00   0.482395E+01
   0.263000E+04   0.634268E-04   0.182486E-03   0.379211E+00   0.482395E+01
   0.264000E+04   0.642683E-04   0.184455E-03   0.379211E+00   0.482395E+01
   0.265000E+04   0.651055E-04   0.186409E-03   0.379212E+00   0.482395E+01
   0.266000E+04   0.659384E-04   0.188350E-03   0.379213E+00   0.482395E+01
   0.267000E+04   0.667669E-04   0.190277E-03   0.379214E+00   0.482395E+01
   0.268000E+04   0.675911E-04   0.192191E-03   0.379214E+00   0.482395E+01
   0.269000E+04   0.684110E-04   0.194091E-03   0.379213E+00   0.482395E+01
   0.270000E+04   0.692265E-04   0.195978E-03   0.379213E+00   0.482395E+01
   0.271000E+04   0.700377E-04   0.197852E-03   0.379214E+00   0.482395E+01
   0.272000E+04   0.708448E-04   0.199713E-03   0.379215E+00   0.482395E+01
   0.273000E+04   0.716477E-04   0.201562E-03   0.379216E+00   0.482395E+01
   0.274000E+04   0.724465E-04   0.203398E-03   0.379216E+00   0.482395E+01
   0.275000E+04   0.732413E-04   0.205223E-03   0.379214E+00   0.482395E+01
   0.276000E+04   0.740321E-04   0.207036E-03   0.379214E+00   0.482395E+01
   0.277000E+04   0.748189E-04   0.208838E-03   0.379215E+00   0.482395E+01
   0.278000E+04   0.756020E-04   0.210629E-03   0.379216E+00   0.482395E+01
   0.279000E+04   0.763813E-04   0.212409E-03   0.379217E+00   0.482395E+01
   0.280000E+04   0.771569E-04   0.214180E-03   0.379217E+00   0.482395E+01
   0.281000E+04   0.779290E-04   0.215940E-03   0.379216E+00   0.482395E+01
   0.282000E+04   0.786974E-04   0.217690E-03   0.379215E+00   0.482395E+01
   0.283000E+04   0.794623E-04   0.219432E-03   0.379216E+00   0.482395E+01
   0.284000E+04   0.802237E-04   0.221164E-03   0.379217E+00   0.482395E+01
   0.285000E+04   0.809819E-04   0.222887E-03   0.379218E+00   0.482395E+01
   0.286000E+04   0.817368E-04   0.224602E-03   0.379219E+00   0.482395E+01
   0.287000E+04   0.824884E-04   0.226309E-03   0.379218E+00   0.482395E+01
   0.288000E+04   0.832367E-04   0.228007E-03   0.379216E+00   0.482395E+01
   0.289000E+04   0.839819E-04   0.229698E-03   0.379216E+00   0.482395E+01
   0.290000E+04   0.847239E-04   0.231380E-03   0.379217E+00   0.482395E+01
   0.291000E+04   0.854629E-04   0.233056E-03   0.379219E+00   0.482395E+01
   0.292000E+04   0.861989E-04   0.234724E-03   0.379220E+00   0.482395E+01
   0.293000E+04   0.869319E-04   0.236386E-03   0.379219E+00   0.482395E+01
   0.294000E+04   0.876619E-04   0.238040E-03   0.379217E+00   0.482395E+01
   0.295000E+04   0.883889E-04   0.239687E-03   0.379217E+00   0.482395E+01
   0.296000E+04   0.891130E-04   0.241328E-03   0.379218E+00   0.482395E+01
   0.297000E+04   0.898342E-04   0.242962E-03   0.379219E+00   0.482395E+01
   0.298000E+04   0.905525E-04   0.244589E-03   0.379221E+00   0.482395E+01
   0.299000E+04   0.912681E-04   0.246211E-03   0.379221E+00   0.482395E+01
   0.300000E+04   0.919808E-04   0.247826E-03   0.379219E+00   0.482395E+01
   0.301000E+04   0.926907E-04   0.249434E-03   0.379217E+00   0.482395E+01
   0.302000E+04   0.933977E-04   0.251037E-03   0.379218E+00   0.482395E+01
   0.303000E+04   0.941020E-04   0.252633E-03   0.379219E+00   0.482395E+01
   0.304000E+04   0.948035E-04   0.254223E-03   0.379221E+00   0.482395E+01
   0.305000E+04   0.955023E-04   0.255808E-03   0.379222E+00   0.482395E+01
   0.306000E+04   0.961984E-04   0.257386E-03   0.379221E+00   0.482395E+01
   0.307000E+04   0.968917E-04   0.258959E-03   0.379218E+00   0.482395E+01
   0.308000E+04   0.975822E-04   0.260525E-03   0.379218E+00   0.482395E+01
   0.309000E+04   0.982699E-04   0.262086E-03   0.379219E+00   0.482395E+01
   0.310000E+04   0.989550E-04   0.263640E-03   0.379221E+00   0.482395E+01
   0.311000E+04   0.996374E-04   0.265190E-03   0.379223E+00   0.482395E+01
   0.312000E+04   0.100317E-03   0.266733E-03   0.379222E+00   0.482395E+01
   0.313000E+04   0.100994E-03   0.268270E-03   0.379220E+00   0.482395E+01
   0.314000E+04   0.101668E-03   0.269802E-03   0.379218E+00   0.482395E+01
   0.315000E+04   0.102340E-03   0.271327E-03   0.379219E+00   0.482395E+01
   0.316000E+04   0.103008E-03   0.272847E-03   0.379221E+00   0.482395E+01
   0.317000E+04   0.103675E-03   0.274361E-03   0.379223E+00   0.482395E+01
   0.318000E+04   0.104338E-03   0.275870E-03   0.379223E+00   0.482395E+01
   0.319000E+04   0.104999E-03   0.277372E-03   0.379221E+00   0.482395E+01
   0.320000E+04   0.105656E-03   0.278869E-03   0.379219E+00   0.482395E+01
   0.321000E+04   0.106312E-03   0.280359E-03   0.379219E+00   0.482395E+01
   0.322000E+04   0.106964E-03   0.281843E-03   0.379220E+00   0.482395E+01
   0.323000E+04   0.107614E-03   0.283322E-03   0.379222E+00   0.482395E+01
   0.324000E+04   0.108261E-03   0.284795E-03   0.379224E+00   0.482395E+01
   0.325000E+04   0.108905E-03   0.286262E-03   0.379223E+00   0.482395E+01
   0.326000E+04   0.109546E-03   0.287722E-03   0.379220E+00   0.482395E+01
   0.327000E+04   0.110185E-03   0.289177E-03   0.379219E+00   0.482395E+01
   0.328000E+04   0.110820E-03   0.290625E-03   0.379220E+00   0.482395E+01
   0.329000E+04   0.111453E-03   0.292067E-03   0.379222E+00   0.482395E+01
   0.330000E+04   0.112083E-03   0.293503E-03   0.379224E+00   0.482395E+01
   0.331000E+04   0.112711E-03   0.294933E-03   0.379224E+00   0.482395E+01
   0.332000E+04   0.113335E-03   0.296356E-03   0.379222E+00   0.482395E+01
   0.333000E+04   0.113957E-03   0.297773E-03   0.379220E+00   0.482395E+01
   0.334000E+04   0.114575E-03   0.299183E-03   0.379220E+00   0.482395E+01
   0.335000E+04   0.115191E-03   0.300587E-03   0.379221E+00   0.482395E+01
   0.336000E+04   0.115804E-03   0.301985E-03   0.379223E+00   0.482395E+01
   0.337000E+04   0.116414E-03   0.303376E-03   0.379225E+00   0.482395E+01
   0.338000E+04   0.117021E-03   0.304760E-03   0.379223E+00   0.482395E+01
   0.339000E+04   0.117625E-03   0.306138E-03   0.379221E+00   0.482395E+01
   0.340000E+04   0.118226E-03   0.307509E-03   0.379220E+00   0.482395E+01
   0.341000E+04   0.118825E-03   0.308873E-03   0.379220E+00   0.482395E+01
   0.342000E+04   0.119420E-03   0.310230E-03   0.379222E+00   0.482395E+01
   0.343000E+04   0.120012E-03   0.311581E-03   0.379224E+00   0.482395E+01
   0.344000E+04   0.120602E-03   0.312924E-03   0.379224E+00   0.482395E+01
   0.345000E+04   0.121188E-03   0.314261E-03   0.379222E+00   0.482395E+01
   0.346000E+04   0.121771E-03   0.315590E-03   0.379221E+00   0.482395E+01
   0.347000E+04   0.122351E-03   0.316912E-03   0.379220E+00   0.482395E+01
   0.348000E+04   0.122928E-03   0.318227E-03   0.379221E+00   0.482395E+01
   0.349000E+04   0.123502E-03   0.319537E-03   0.379223E+00   0.482395E+01
   0.350000E+04   0.124074E-03   0.320839E-03   0.379225E+00   0.482395E+01
   0.351000E+04   0.124642E-03   0.322133E-03   0.379223E+00   0.482395E+01
   0.352000E+04   0.125206E-03   0.323419E-03   0.379221E+00   0.482395E+01
   0.353000E+04   0.125766E-03   0.324696E-03   0.379221E+00   0.482395E+01
   0.354000E+04   0.126324E-03   0.325966E-03   0.379220E+00   0.482395E+01
   0.355000E+04   0.126879E-03   0.327228E-03   0.379222E+00   0.482395E+01
   0.356000E+04   0.127432E-03   0.328486E-03   0.379224E+00   0.482395E+01
   0.357000E+04   0.127983E-03   0.329739E-03   0.379224E+00   0.482395E+01
   0.358000E+04   0.128529E-03   0.330983E-03   0.379222E+00   0.482395E+01
   0.359000E+04   0.129069E-03   0.332215E-03   0.379221E+00   0.482395E+01
   0.360000E+04   0.129603E-03   0.333432E-03   0.379220E+00   0.482395E+01
   0.361000E+04   0.130133E-03   0.334637E-03   0.379220E+00   0.482395E+01
   0.362000E+04   0.130663E-03   0.335836E-03   0.379221E+00   0.482395E+01
   0.363000E+04   0.131194E-03   0.337036E-03   0.379222E+00   0.482395E+01
   0.364000E+04   0.131728E-03   0.338240E-03   0.379221E+00   0.482395E+01
   0.365000E+04   0.132261E-03   0.339446E-03   0.379220E+00   0.482395E+01
   0.366000E+04   0.132792E-03   0.340649E-03   0.379220E+00   0.482395E+01
   0.367000E+04   0.133318E-03   0.341845E-03   0.379220E+00   0.482395E+01
   0.368000E+04   0.133842E-03   0.343034E-03   0.379220E+00   0.482395E+01
   0.369000E+04   0.134368E-03   0.344224E-03   0.379221E+00   0.482395E+01
   0.370000E+04   0.134901E-03   0.345422E-03   0.379221E+00   0.482395E+01
   0.371000E+04   0.135441E-03   0.346634E-03   0.379220E+00   0.482395E+01
   0.372000E+04   0.135987E-03   0.347864E-03   0.379220E+00   0.482395E+01
   0.373000E+04   0.136538E-03   0.349108E-03   0.379220E+00   0.482395E+01
   0.374000E+04   0.137089E-03   0.350359E-03   0.379221E+00   0.482395E+01
   0.375000E+04   0.137637E-03   0.351611E-03   0.379222E+00   0.482395E+01
   0.376000E+04   0.138185E-03   0.352863E-03   0.379221E+00   0.482395E+01
   0.377000E+04   0.138733E-03   0.354117E-03   0.379219E+00   0.482395E+01
   0.378000E+04   0.139285E-03   0.355376E-03   0.379220E+00   0.482395E+01
   0.379000E+04   0.139840E-03   0.356644E-03   0.379220E+00   0.482395E+01
   0.380000E+04   0.140397E-03   0.357918E-03   0.379222E+00   0.482395E+01
   0.381000E+04   0.140953E-03   0.359195E-03   0.379223E+00   0.482395E+01
   0.382000E+04   0.141504E-03   0.360467E-03   0.379223E+00   0.482395E+01
   0.383000E+04   0.142048E-03   0.361727E-03   0.379221E+00   0.482395E+01
   0.384000E+04   0.142587E-03   0.362976E-03   0.379219E+00   0.482395E+01
   0.385000E+04   0.143124E-03   0.364214E-03   0.379219E+00   0.482395E+01
   0.386000E+04   0.143659E-03   0.365447E-03   0.379221E+00   0.482395E+01
   0.387000E+04   0.144193E-03   0.366676E-03   0.379222E+00   0.482395E+01
   0.388000E+04   0.144725E-03   0.367901E-03   0.379223E+00   0.482395E+01
   0.389000E+04   0.145252E-03   0.369117E-03   0.379222E+00   0.482395E+01
   0.390000E+04   0.145771E-03   0.370317E-03   0.379220E+00   0.482395E+01
   0.391000E+04   0.146283E-03   0.371500E-03   0.379220E+00   0.482395E+01
   0.392000E+04   0.146787E-03   0.372664E-03   0.379220E+00   0.482395E+01
   0.393000E+04   0.147288E-03   0.373815E-03   0.379221E+00   0.482395E+01