title="breakthrough data set at     5 wells"
variables="time(days)","cavg","cpk","upk","zswi"
zone i=     1295
   0.100000E+02   0.155278E-09   0.234025E-09   0.464114E+00   0.485549E+01
   0.200000E+02   0.310463E-09   0.457858E-09   0.375960E+00   0.483309E+01
   0.300000E+02   0.551020E-09   0.801380E-09   0.375068E+00   0.483309E+01
   0.400000E+02   0.912589E-09   0.131226E-08   0.374605E+00   0.483309E+01
   0.500000E+02   0.144028E-08   0.204846E-08   0.374206E+00   0.483309E+01
   0.600000E+02   0.219011E-08   0.307927E-08   0.373851E+00   0.483309E+01
   0.700000E+02   0.322942E-08   0.448545E-08   0.373498E+00   0.483309E+01
   0.800000E+02   0.463172E-08   0.635277E-08   0.373242E+00   0.483309E+01
   0.900000E+02   0.647396E-08   0.877109E-08   0.373020E+00   0.483309E+01
   0.100000E+03   0.882830E-08   0.118278E-07   0.372827E+00   0.483309E+01
   0.110000E+03   0.117515E-07   0.156010E-07   0.372659E+00   0.483309E+01
   0.120000E+03   0.152627E-07   0.201387E-07   0.372682E+00   0.483309E+01
   0.130000E+03   0.193539E-07   0.254836E-07   0.372511E+00   0.483309E+01
   0.140000E+03   0.239466E-07   0.316281E-07   0.372366E+00   0.483309E+01
   0.150000E+03   0.288824E-07   0.385168E-07   0.372242E+00   0.483309E+01
   0.160000E+03   0.339081E-07   0.460409E-07   0.372135E+00   0.483309E+01
   0.170000E+03   0.386625E-07   0.540353E-07   0.372041E+00   0.483309E+01
   0.180000E+03   0.426673E-07   0.622804E-07   0.371958E+00   0.483309E+01
   0.190000E+03   0.453197E-07   0.705065E-07   0.371884E+00   0.483309E+01
   0.200000E+03   0.458905E-07   0.784023E-07   0.371817E+00   0.483309E+01
   0.210000E+03   0.435258E-07   0.856258E-07   0.371757E+00   0.483309E+01
   0.220000E+03   0.372563E-07   0.918181E-07   0.371701E+00   0.483309E+01
   0.230000E+03   0.260144E-07   0.966199E-07   0.371651E+00   0.483309E+01
   0.240000E+03   0.865984E-08   0.108811E-06   0.371603E+00   0.483309E+01
   0.250000E+03  -0.159883E-07   0.123773E-06   0.371559E+00   0.483309E+01
   0.260000E+03  -0.491158E-07   0.140287E-06   0.371518E+00   0.483309E+01
   0.270000E+03  -0.918781E-07   0.158511E-06   0.371478E+00   0.483309E+01
   0.280000E+03  -0.145368E-06   0.178613E-06   0.371440E+00   0.483309E+01
   0.290000E+03  -0.210588E-06   0.200761E-06   0.371404E+00   0.483309E+01
   0.300000E+03  -0.288432E-06   0.225125E-06   0.371369E+00   0.483309E+01
   0.310000E+03  -0.379669E-06   0.251863E-06   0.371336E+00   0.483309E+01
   0.320000E+03  -0.484933E-06   0.281121E-06   0.371303E+00   0.483309E+01
   0.330000E+03  -0.604720E-06   0.313025E-06   0.371271E+00   0.483309E+01
   0.340000E+03  -0.739382E-06   0.347680E-06   0.371240E+00   0.483309E+01
   0.350000E+03  -0.889125E-06   0.385163E-06   0.371209E+00   0.483309E+01
   0.360000E+03  -0.105401E-05   0.425524E-06   0.371179E+00   0.483309E+01
   0.370000E+03  -0.123394E-05   0.468788E-06   0.371149E+00   0.483309E+01
   0.380000E+03  -0.142867E-05   0.514948E-06   0.371120E+00   0.483309E+01
   0.390000E+03  -0.163781E-05   0.563975E-06   0.371091E+00   0.483309E+01
   0.400000E+03  -0.186080E-05   0.615812E-06   0.371063E+00   0.483309E+01
   0.410000E+03  -0.209695E-05   0.670381E-06   0.371035E+00   0.483309E+01
   0.420000E+03  -0.234542E-05   0.727582E-06   0.371007E+00   0.483309E+01
   0.430000E+03  -0.260524E-05   0.787300E-06   0.370980E+00   0.483309E+01
   0.440000E+03  -0.287532E-05   0.849404E-06   0.370953E+00   0.483309E+01
   0.450000E+03  -0.315448E-05   0.913752E-06   0.370927E+00   0.483309E+01
   0.460000E+03  -0.344143E-05   0.980196E-06   0.370901E+00   0.483309E+01
   0.470000E+03  -0.373484E-05   0.104859E-05   0.370875E+00   0.483309E+01
   0.480000E+03  -0.403331E-05   0.111877E-05   0.370850E+00   0.483309E+01
   0.490000E+03  -0.433542E-05   0.119059E-05   0.370825E+00   0.483309E+01
   0.500000E+03  -0.463972E-05   0.126392E-05   0.370801E+00   0.483309E+01
   0.510000E+03  -0.494478E-05   0.133862E-05   0.370776E+00   0.483309E+01
   0.520000E+03  -0.524915E-05   0.141455E-05   0.370752E+00   0.483309E+01
   0.530000E+03  -0.555143E-05   0.149162E-05   0.370729E+00   0.483309E+01
   0.540000E+03  -0.585025E-05   0.156970E-05   0.370706E+00   0.483309E+01
   0.550000E+03  -0.614428E-05   0.164871E-05   0.370683E+00   0.483309E+01
   0.560000E+03  -0.643224E-05   0.172857E-05   0.370660E+00   0.483309E+01
   0.570000E+03  -0.671289E-05   0.180919E-05   0.370638E+00   0.483309E+01
   0.580000E+03  -0.698509E-05   0.189052E-05   0.370616E+00   0.483309E+01
   0.590000E+03  -0.724774E-05   0.197250E-05   0.370594E+00   0.483309E+01
   0.600000E+03  -0.749980E-05   0.205508E-05   0.370573E+00   0.483309E+01
   0.610000E+03  -0.774032E-05   0.213821E-05   0.370552E+00   0.483309E+01
   0.620000E+03  -0.796843E-05   0.222188E-05   0.370531E+00   0.483309E+01
   0.630000E+03  -0.818330E-05   0.230605E-05   0.370511E+00   0.483309E+01
   0.640000E+03  -0.838418E-05   0.239070E-05   0.370492E+00   0.483309E+01
   0.650000E+03  -0.857042E-05   0.247584E-05   0.370472E+00   0.483309E+01
   0.660000E+03  -0.874140E-05   0.256146E-05   0.370453E+00   0.483309E+01
   0.670000E+03  -0.889657E-05   0.264757E-05   0.370434E+00   0.483309E+01
   0.680000E+03  -0.903546E-05   0.273417E-05   0.370416E+00   0.483309E+01
   0.690000E+03  -0.915765E-05   0.282129E-05   0.370398E+00   0.483309E+01
   0.700000E+03  -0.926278E-05   0.290894E-05   0.370380E+00   0.483309E+01
   0.710000E+03  -0.935054E-05   0.299715E-05   0.370363E+00   0.483309E+01
   0.720000E+03  -0.942068E-05   0.308595E-05   0.370346E+00   0.483309E+01
   0.730000E+03  -0.947301E-05   0.317537E-05   0.370330E+00   0.483309E+01
   0.740000E+03  -0.950738E-05   0.326543E-05   0.370313E+00   0.483309E+01
   0.750000E+03  -0.952369E-05   0.335617E-05   0.370297E+00   0.483309E+01
   0.760000E+03  -0.952189E-05   0.344763E-05   0.370282E+00   0.483309E+01
   0.770000E+03  -0.950197E-05   0.353982E-05   0.370267E+00   0.483309E+01
   0.780000E+03  -0.946397E-05   0.363280E-05   0.370252E+00   0.483309E+01
   0.790000E+03  -0.940794E-05   0.372658E-05   0.370237E+00   0.483309E+01
   0.800000E+03  -0.933399E-05   0.382120E-05   0.370222E+00   0.483309E+01
   0.810000E+03  -0.924225E-05   0.391670E-05   0.370209E+00   0.483309E+01
   0.820000E+03  -0.913284E-05   0.401310E-05   0.370197E+00   0.483309E+01
   0.830000E+03  -0.900595E-05   0.411045E-05   0.370184E+00   0.483309E+01
   0.840000E+03  -0.886176E-05   0.420878E-05   0.370170E+00   0.483309E+01
   0.850000E+03  -0.870046E-05   0.430812E-05   0.370157E+00   0.483309E+01
   0.860000E+03  -0.852226E-05   0.440851E-05   0.370147E+00   0.483309E+01
   0.870000E+03  -0.832740E-05   0.450996E-05   0.370137E+00   0.483309E+01
   0.880000E+03  -0.811610E-05   0.461252E-05   0.370125E+00   0.483309E+01
   0.890000E+03  -0.788862E-05   0.471620E-05   0.370112E+00   0.483309E+01
   0.900000E+03  -0.764521E-05   0.482104E-05   0.370103E+00   0.483309E+01
   0.910000E+03  -0.738614E-05   0.492704E-05   0.370096E+00   0.483309E+01
   0.920000E+03  -0.711169E-05   0.503422E-05   0.370088E+00   0.483309E+01
   0.930000E+03  -0.682213E-05   0.514261E-05   0.370076E+00   0.483309E+01
   0.940000E+03  -0.651775E-05   0.525221E-05   0.370066E+00   0.483309E+01
   0.950000E+03  -0.619884E-05   0.536303E-05   0.370059E+00   0.483309E+01
   0.960000E+03  -0.586571E-05   0.547505E-05   0.370055E+00   0.483309E+01
   0.970000E+03  -0.551863E-05   0.558831E-05   0.370047E+00   0.483309E+01
   0.980000E+03  -0.515787E-05   0.570278E-05   0.370035E+00   0.483309E+01
   0.990000E+03  -0.478373E-05   0.581847E-05   0.370026E+00   0.483309E+01
   0.100000E+04  -0.439651E-05   0.593537E-05   0.370022E+00   0.483309E+01
   0.101000E+04  -0.399649E-05   0.605346E-05   0.370018E+00   0.483309E+01
   0.102000E+04  -0.358392E-05   0.617275E-05   0.370009E+00   0.483309E+01
   0.103000E+04  -0.315905E-05   0.629323E-05   0.369997E+00   0.483309E+01
   0.104000E+04  -0.272216E-05   0.641488E-05   0.369990E+00   0.483309E+01
   0.105000E+04  -0.227354E-05   0.653769E-05   0.369987E+00   0.483309E+01
   0.106000E+04  -0.181345E-05   0.666164E-05   0.369983E+00   0.483309E+01
   0.107000E+04  -0.134210E-05   0.678674E-05   0.369973E+00   0.483309E+01
   0.108000E+04  -0.859736E-06   0.691297E-05   0.369963E+00   0.483309E+01
   0.109000E+04  -0.366619E-06   0.704033E-05   0.369957E+00   0.483309E+01
   0.110000E+04   0.136955E-06   0.716878E-05   0.369955E+00   0.483309E+01
   0.111000E+04   0.650760E-06   0.729832E-05   0.369950E+00   0.483309E+01
   0.112000E+04   0.117460E-05   0.742896E-05   0.369940E+00   0.483309E+01
   0.113000E+04   0.170826E-05   0.756070E-05   0.369931E+00   0.483309E+01
   0.114000E+04   0.225144E-05   0.769351E-05   0.369927E+00   0.483309E+01
   0.115000E+04   0.280388E-05   0.782737E-05   0.369926E+00   0.483309E+01
   0.116000E+04   0.336536E-05   0.796229E-05   0.369920E+00   0.483309E+01
   0.117000E+04   0.393572E-05   0.809828E-05   0.369910E+00   0.483309E+01
   0.118000E+04   0.451473E-05   0.823533E-05   0.369902E+00   0.483309E+01
   0.119000E+04   0.510209E-05   0.837341E-05   0.369899E+00   0.483309E+01
   0.120000E+04   0.569754E-05   0.851252E-05   0.369898E+00   0.483309E+01
   0.121000E+04   0.630091E-05   0.865267E-05   0.369891E+00   0.483309E+01
   0.122000E+04   0.691204E-05   0.879386E-05   0.369882E+00   0.483309E+01
   0.123000E+04   0.753068E-05   0.100446E-04   0.369875E+00   0.483309E+01
   0.124000E+04   0.815655E-05   0.114943E-04   0.369873E+00   0.483309E+01
   0.125000E+04   0.878938E-05   0.129618E-04   0.369872E+00   0.483309E+01
   0.126000E+04   0.942905E-05   0.144468E-04   0.369865E+00   0.483309E+01
   0.127000E+04   0.100754E-04   0.159486E-04   0.369856E+00   0.483309E+01
   0.128000E+04   0.107282E-04   0.174668E-04   0.369850E+00   0.483309E+01
   0.129000E+04   0.113870E-04   0.190005E-04   0.369849E+00   0.483309E+01
   0.130000E+04   0.120518E-04   0.205491E-04   0.369848E+00   0.483309E+01
   0.131000E+04   0.127223E-04   0.221123E-04   0.369840E+00   0.483309E+01
   0.132000E+04   0.133984E-04   0.236896E-04   0.369831E+00   0.483309E+01
   0.133000E+04   0.140799E-04   0.252802E-04   0.369827E+00   0.483309E+01
   0.134000E+04   0.147663E-04   0.268835E-04   0.369828E+00   0.483309E+01
   0.135000E+04   0.154576E-04   0.284989E-04   0.369825E+00   0.483309E+01
   0.136000E+04   0.161537E-04   0.301262E-04   0.369818E+00   0.483309E+01
   0.137000E+04   0.168543E-04   0.317648E-04   0.369810E+00   0.483309E+01
   0.138000E+04   0.175592E-04   0.334142E-04   0.369807E+00   0.483309E+01
   0.139000E+04   0.182682E-04   0.350738E-04   0.369808E+00   0.483309E+01
   0.140000E+04   0.189811E-04   0.367432E-04   0.369805E+00   0.483309E+01
   0.141000E+04   0.196978E-04   0.384222E-04   0.369797E+00   0.483309E+01
   0.142000E+04   0.204183E-04   0.401105E-04   0.369791E+00   0.483309E+01
   0.143000E+04   0.211423E-04   0.418075E-04   0.369789E+00   0.483309E+01
   0.144000E+04   0.218695E-04   0.435130E-04   0.369791E+00   0.483309E+01
   0.145000E+04   0.226000E-04   0.452266E-04   0.369787E+00   0.483309E+01
   0.146000E+04   0.233336E-04   0.469483E-04   0.369779E+00   0.483309E+01
   0.147000E+04   0.240703E-04   0.486780E-04   0.369774E+00   0.483309E+01
   0.148000E+04   0.248099E-04   0.504150E-04   0.369774E+00   0.483309E+01
   0.149000E+04   0.255521E-04   0.521593E-04   0.369775E+00   0.483309E+01
   0.150000E+04   0.262969E-04   0.539107E-04   0.369771E+00   0.483309E+01
   0.151000E+04   0.270444E-04   0.556692E-04   0.369764E+00   0.483309E+01
   0.152000E+04   0.277945E-04   0.574346E-04   0.369759E+00   0.483309E+01
   0.153000E+04   0.285469E-04   0.592066E-04   0.369760E+00   0.483309E+01
   0.154000E+04   0.293015E-04   0.609850E-04   0.369762E+00   0.483309E+01
   0.155000E+04   0.300582E-04   0.627697E-04   0.369757E+00   0.483309E+01
   0.156000E+04   0.308172E-04   0.645609E-04   0.369750E+00   0.483309E+01
   0.157000E+04   0.315783E-04   0.663582E-04   0.369746E+00   0.483309E+01
   0.158000E+04   0.323412E-04   0.681613E-04   0.369748E+00   0.483309E+01
   0.159000E+04   0.331059E-04   0.699700E-04   0.369749E+00   0.483309E+01
   0.160000E+04   0.338723E-04   0.717845E-04   0.369744E+00   0.483309E+01
   0.161000E+04   0.346406E-04   0.736045E-04   0.369737E+00   0.483309E+01
   0.162000E+04   0.354104E-04   0.754299E-04   0.369735E+00   0.483309E+01
   0.163000E+04   0.361816E-04   0.772601E-04   0.369737E+00   0.483309E+01
   0.164000E+04   0.369540E-04   0.790949E-04   0.369737E+00   0.483309E+01
   0.165000E+04   0.377277E-04   0.809344E-04   0.369731E+00   0.483309E+01
   0.166000E+04   0.385027E-04   0.827784E-04   0.369725E+00   0.483309E+01
   0.167000E+04   0.392786E-04   0.846263E-04   0.369724E+00   0.483309E+01
   0.168000E+04   0.400553E-04   0.864777E-04   0.369727E+00   0.483309E+01
   0.169000E+04   0.408326E-04   0.883321E-04   0.369725E+00   0.483309E+01
   0.170000E+04   0.416106E-04   0.901897E-04   0.369719E+00   0.483309E+01
   0.171000E+04   0.423890E-04   0.920499E-04   0.369714E+00   0.483309E+01
   0.172000E+04   0.431677E-04   0.939121E-04   0.369714E+00   0.483309E+01
   0.173000E+04   0.439464E-04   0.957757E-04   0.369717E+00   0.483309E+01
   0.174000E+04   0.447248E-04   0.976404E-04   0.369715E+00   0.483309E+01
   0.175000E+04   0.455032E-04   0.995060E-04   0.369708E+00   0.483309E+01
   0.176000E+04   0.462813E-04   0.101372E-03   0.369704E+00   0.483309E+01
   0.177000E+04   0.470587E-04   0.103238E-03   0.369705E+00   0.483309E+01
   0.178000E+04   0.478352E-04   0.105103E-03   0.369708E+00   0.483309E+01
   0.179000E+04   0.486109E-04   0.106968E-03   0.369704E+00   0.483309E+01
   0.180000E+04   0.493857E-04   0.108832E-03   0.369698E+00   0.483309E+01
   0.181000E+04   0.501595E-04   0.110694E-03   0.369694E+00   0.483309E+01
   0.182000E+04   0.509321E-04   0.112555E-03   0.369696E+00   0.483309E+01
   0.183000E+04   0.517032E-04   0.114414E-03   0.369698E+00   0.483309E+01
   0.184000E+04   0.524729E-04   0.116271E-03   0.369694E+00   0.483309E+01
   0.185000E+04   0.532415E-04   0.118126E-03   0.369688E+00   0.483309E+01
   0.186000E+04   0.540088E-04   0.119980E-03   0.369685E+00   0.483309E+01
   0.187000E+04   0.547744E-04   0.121832E-03   0.369687E+00   0.483309E+01
   0.188000E+04   0.555385E-04   0.123682E-03   0.369688E+00   0.483309E+01
   0.189000E+04   0.562983E-04   0.125524E-03   0.369678E+00   0.483309E+01
   0.190000E+04   0.570602E-04   0.127372E-03   0.369682E+00   0.483309E+01
   0.191000E+04   0.578210E-04   0.129220E-03   0.369678E+00   0.483309E+01
   0.192000E+04   0.585806E-04   0.131067E-03   0.369671E+00   0.483309E+01
   0.193000E+04   0.593391E-04   0.132914E-03   0.369664E+00   0.483309E+01
   0.194000E+04   0.600965E-04   0.134761E-03   0.369660E+00   0.483309E+01
   0.195000E+04   0.608527E-04   0.136607E-03   0.369660E+00   0.483309E+01
   0.196000E+04   0.616076E-04   0.138453E-03   0.369660E+00   0.483309E+01
   0.197000E+04   0.623613E-04   0.140299E-03   0.369656E+00   0.483309E+01
   0.198000E+04   0.631141E-04   0.142146E-03   0.369651E+00   0.483309E+01
   0.199000E+04   0.638658E-04   0.143992E-03   0.369650E+00   0.483309E+01
   0.200000E+04   0.646160E-04   0.145838E-03   0.369653E+00   0.483309E+01
   0.201000E+04   0.653648E-04   0.147684E-03   0.369654E+00   0.483309E+01
   0.202000E+04   0.661123E-04   0.149529E-03   0.369650E+00   0.483309E+01
   0.203000E+04   0.668584E-04   0.151373E-03   0.369646E+00   0.483309E+01
   0.204000E+04   0.676030E-04   0.153217E-03   0.369647E+00   0.483309E+01
   0.205000E+04   0.683456E-04   0.155059E-03   0.369651E+00   0.483309E+01
   0.206000E+04   0.690864E-04   0.156899E-03   0.369650E+00   0.483309E+01
   0.207000E+04   0.698254E-04   0.158737E-03   0.369646E+00   0.483309E+01
   0.208000E+04   0.705626E-04   0.160573E-03   0.369643E+00   0.483309E+01
   0.209000E+04   0.712979E-04   0.162406E-03   0.369644E+00   0.483309E+01
   0.210000E+04   0.720308E-04   0.164237E-03   0.369647E+00   0.483309E+01
   0.211000E+04   0.727616E-04   0.166064E-03   0.369645E+00   0.483309E+01
   0.212000E+04   0.734905E-04   0.167888E-03   0.369641E+00   0.483309E+01
   0.213000E+04   0.742174E-04   0.169710E-03   0.369640E+00   0.483309E+01
   0.214000E+04   0.749397E-04   0.171522E-03   0.369637E+00   0.483309E+01
   0.215000E+04   0.756609E-04   0.173333E-03   0.369638E+00   0.483309E+01
   0.216000E+04   0.763808E-04   0.175143E-03   0.369636E+00   0.483309E+01
   0.217000E+04   0.770995E-04   0.176951E-03   0.369637E+00   0.483309E+01
   0.218000E+04   0.778170E-04   0.178757E-03   0.369637E+00   0.483309E+01
   0.219000E+04   0.785333E-04   0.180562E-03   0.369638E+00   0.483309E+01
   0.220000E+04   0.792482E-04   0.182365E-03   0.369643E+00   0.483309E+01
   0.221000E+04   0.799612E-04   0.184165E-03   0.369646E+00   0.483309E+01
   0.222000E+04   0.806722E-04   0.185962E-03   0.369647E+00   0.483309E+01
   0.223000E+04   0.813813E-04   0.187756E-03   0.369646E+00   0.483309E+01
   0.224000E+04   0.820884E-04   0.189547E-03   0.369645E+00   0.483309E+01
   0.225000E+04   0.827937E-04   0.191334E-03   0.369643E+00   0.483309E+01
   0.226000E+04   0.834973E-04   0.193117E-03   0.369643E+00   0.483309E+01
   0.227000E+04   0.841990E-04   0.194897E-03   0.369644E+00   0.483309E+01
   0.228000E+04   0.848985E-04   0.196673E-03   0.369647E+00   0.483309E+01
   0.229000E+04   0.855959E-04   0.198445E-03   0.369647E+00   0.483309E+01
   0.230000E+04   0.862910E-04   0.200212E-03   0.369647E+00   0.483309E+01
   0.231000E+04   0.869842E-04   0.201976E-03   0.369647E+00   0.483309E+01
   0.232000E+04   0.876757E-04   0.203735E-03   0.369645E+00   0.483309E+01
   0.233000E+04   0.883655E-04   0.205491E-03   0.369644E+00   0.483309E+01
   0.234000E+04   0.890536E-04   0.207243E-03   0.369644E+00   0.483309E+01
   0.235000E+04   0.897397E-04   0.208991E-03   0.369646E+00   0.483309E+01
   0.236000E+04   0.904238E-04   0.210735E-03   0.369647E+00   0.483309E+01
   0.237000E+04   0.911059E-04   0.212475E-03   0.369648E+00   0.483309E+01
   0.238000E+04   0.917862E-04   0.214211E-03   0.369648E+00   0.483309E+01
   0.239000E+04   0.924650E-04   0.215942E-03   0.369646E+00   0.483309E+01
   0.240000E+04   0.931423E-04   0.217671E-03   0.369645E+00   0.483309E+01
   0.241000E+04   0.938180E-04   0.219395E-03   0.369644E+00   0.483309E+01
   0.242000E+04   0.944920E-04   0.221116E-03   0.369646E+00   0.483309E+01
   0.243000E+04   0.951639E-04   0.222833E-03   0.369647E+00   0.483309E+01
   0.244000E+04   0.958339E-04   0.224545E-03   0.369649E+00   0.483309E+01
   0.245000E+04   0.965021E-04   0.226253E-03   0.369649E+00   0.483309E+01
   0.246000E+04   0.971686E-04   0.227957E-03   0.369647E+00   0.483309E+01
   0.247000E+04   0.978337E-04   0.229657E-03   0.369645E+00   0.483309E+01
   0.248000E+04   0.984972E-04   0.231353E-03   0.369643E+00   0.483309E+01
   0.249000E+04   0.991587E-04   0.233044E-03   0.369644E+00   0.483309E+01
   0.250000E+04   0.998180E-04   0.234731E-03   0.369646E+00   0.483309E+01
   0.251000E+04   0.100475E-03   0.236412E-03   0.369649E+00   0.483309E+01
   0.252000E+04   0.101130E-03   0.238088E-03   0.369649E+00   0.483309E+01
   0.253000E+04   0.101783E-03   0.239759E-03   0.369648E+00   0.483309E+01
   0.254000E+04   0.102434E-03   0.241425E-03   0.369645E+00   0.483309E+01
   0.255000E+04   0.103083E-03   0.243086E-03   0.369642E+00   0.483309E+01
   0.256000E+04   0.103730E-03   0.244740E-03   0.369643E+00   0.483309E+01
   0.257000E+04   0.104373E-03   0.246388E-03   0.369645E+00   0.483309E+01
   0.258000E+04   0.105014E-03   0.248029E-03   0.369649E+00   0.483309E+01
   0.259000E+04   0.105653E-03   0.249663E-03   0.369650E+00   0.483309E+01
   0.260000E+04   0.106288E-03   0.251289E-03   0.369649E+00   0.483309E+01
   0.261000E+04   0.106921E-03   0.252908E-03   0.369645E+00   0.483309E+01
   0.262000E+04   0.107551E-03   0.254520E-03   0.369642E+00   0.483309E+01
   0.263000E+04   0.108178E-03   0.256123E-03   0.369642E+00   0.483309E+01
   0.264000E+04   0.108802E-03   0.257717E-03   0.369644E+00   0.483309E+01
   0.265000E+04   0.109421E-03   0.259301E-03   0.369649E+00   0.483309E+01
   0.266000E+04   0.110038E-03   0.260875E-03   0.369651E+00   0.483309E+01
   0.267000E+04   0.110650E-03   0.262440E-03   0.369650E+00   0.483309E+01
   0.268000E+04   0.111260E-03   0.263995E-03   0.369645E+00   0.483309E+01
   0.269000E+04   0.111866E-03   0.265540E-03   0.369641E+00   0.483309E+01
   0.270000E+04   0.112469E-03   0.267075E-03   0.369640E+00   0.483309E+01
   0.271000E+04   0.113068E-03   0.268598E-03   0.369643E+00   0.483309E+01
   0.272000E+04   0.113662E-03   0.270111E-03   0.369649E+00   0.483309E+01
   0.273000E+04   0.114253E-03   0.271611E-03   0.369651E+00   0.483309E+01
   0.274000E+04   0.114840E-03   0.273101E-03   0.369650E+00   0.483309E+01
   0.275000E+04   0.115424E-03   0.274581E-03   0.369645E+00   0.483309E+01
   0.276000E+04   0.116004E-03   0.276050E-03   0.369640E+00   0.483309E+01
   0.277000E+04   0.116581E-03   0.277508E-03   0.369639E+00   0.483309E+01
   0.278000E+04   0.117153E-03   0.278956E-03   0.369642E+00   0.483309E+01
   0.279000E+04   0.117721E-03   0.280391E-03   0.369648E+00   0.483309E+01
   0.280000E+04   0.118286E-03   0.281816E-03   0.369651E+00   0.483309E+01
   0.281000E+04   0.118846E-03   0.283230E-03   0.369651E+00   0.483309E+01
   0.282000E+04   0.119404E-03   0.284635E-03   0.369645E+00   0.483309E+01
   0.283000E+04   0.119958E-03   0.286030E-03   0.369639E+00   0.483309E+01
   0.284000E+04   0.120508E-03   0.287415E-03   0.369637E+00   0.483309E+01
   0.285000E+04   0.121055E-03   0.288789E-03   0.369642E+00   0.483309E+01
   0.286000E+04   0.121597E-03   0.290153E-03   0.369648E+00   0.483309E+01
   0.287000E+04   0.122136E-03   0.291507E-03   0.369652E+00   0.483309E+01
   0.288000E+04   0.122671E-03   0.292852E-03   0.369652E+00   0.483309E+01
   0.289000E+04   0.123203E-03   0.294187E-03   0.369645E+00   0.483309E+01
   0.290000E+04   0.123732E-03   0.295514E-03   0.369638E+00   0.483309E+01
   0.291000E+04   0.124257E-03   0.296832E-03   0.369636E+00   0.483309E+01
   0.292000E+04   0.124778E-03   0.298140E-03   0.369641E+00   0.483309E+01
   0.293000E+04   0.125296E-03   0.299438E-03   0.369648E+00   0.483309E+01
   0.294000E+04   0.125809E-03   0.300727E-03   0.369653E+00   0.483309E+01
   0.295000E+04   0.126319E-03   0.302007E-03   0.369652E+00   0.483309E+01
   0.296000E+04   0.126827E-03   0.303278E-03   0.369646E+00   0.483309E+01
   0.297000E+04   0.127331E-03   0.304541E-03   0.369637E+00   0.483309E+01
   0.298000E+04   0.127831E-03   0.305796E-03   0.369635E+00   0.483309E+01
   0.299000E+04   0.128328E-03   0.307041E-03   0.369640E+00   0.483309E+01
   0.300000E+04   0.128821E-03   0.308276E-03   0.369648E+00   0.483309E+01
   0.301000E+04   0.129311E-03   0.309503E-03   0.369653E+00   0.483309E+01
   0.302000E+04   0.129797E-03   0.310720E-03   0.369653E+00   0.483309E+01
   0.303000E+04   0.130280E-03   0.311929E-03   0.369646E+00   0.483309E+01
   0.304000E+04   0.130760E-03   0.313130E-03   0.369637E+00   0.483309E+01
   0.305000E+04   0.131237E-03   0.314322E-03   0.369634E+00   0.483309E+01
   0.306000E+04   0.131710E-03   0.315505E-03   0.369640E+00   0.483309E+01
   0.307000E+04   0.132179E-03   0.316679E-03   0.369648E+00   0.483309E+01
   0.308000E+04   0.132644E-03   0.317843E-03   0.369654E+00   0.483309E+01
   0.309000E+04   0.133107E-03   0.318998E-03   0.369653E+00   0.483309E+01
   0.310000E+04   0.133566E-03   0.320145E-03   0.369646E+00   0.483309E+01
   0.311000E+04   0.134022E-03   0.321284E-03   0.369637E+00   0.483309E+01
   0.312000E+04   0.134475E-03   0.322414E-03   0.369633E+00   0.483309E+01
   0.313000E+04   0.134925E-03   0.323535E-03   0.369640E+00   0.483309E+01
   0.314000E+04   0.135371E-03   0.324646E-03   0.369648E+00   0.483309E+01
   0.315000E+04   0.135813E-03   0.325748E-03   0.369655E+00   0.483309E+01
   0.316000E+04   0.136252E-03   0.326841E-03   0.369654E+00   0.483309E+01
   0.317000E+04   0.136688E-03   0.327926E-03   0.369646E+00   0.483309E+01
   0.318000E+04   0.137121E-03   0.329002E-03   0.369637E+00   0.483309E+01
   0.319000E+04   0.137552E-03   0.330071E-03   0.369633E+00   0.483309E+01
   0.320000E+04   0.137978E-03   0.331129E-03   0.369640E+00   0.483309E+01
   0.321000E+04   0.138401E-03   0.332179E-03   0.369649E+00   0.483309E+01
   0.322000E+04   0.138821E-03   0.333218E-03   0.369655E+00   0.483309E+01
   0.323000E+04   0.139237E-03   0.334250E-03   0.369655E+00   0.483309E+01
   0.324000E+04   0.139651E-03   0.335272E-03   0.369647E+00   0.483309E+01
   0.325000E+04   0.140062E-03   0.336287E-03   0.369637E+00   0.483309E+01
   0.326000E+04   0.140470E-03   0.337294E-03   0.369633E+00   0.483309E+01
   0.327000E+04   0.140874E-03   0.338291E-03   0.369640E+00   0.483309E+01
   0.328000E+04   0.141275E-03   0.339279E-03   0.369649E+00   0.483309E+01
   0.329000E+04   0.141673E-03   0.340257E-03   0.369656E+00   0.483309E+01
   0.330000E+04   0.142067E-03   0.341227E-03   0.369655E+00   0.483309E+01
   0.331000E+04   0.142459E-03   0.342189E-03   0.369647E+00   0.483309E+01
   0.332000E+04   0.142848E-03   0.343143E-03   0.369638E+00   0.483309E+01
   0.333000E+04   0.143234E-03   0.344089E-03   0.369634E+00   0.483309E+01
   0.334000E+04   0.143617E-03   0.345026E-03   0.369640E+00   0.483309E+01
   0.335000E+04   0.143997E-03   0.345954E-03   0.369649E+00   0.483309E+01
   0.336000E+04   0.144373E-03   0.346873E-03   0.369657E+00   0.483309E+01
   0.337000E+04   0.144747E-03   0.347784E-03   0.369656E+00   0.483309E+01
   0.338000E+04   0.145117E-03   0.348687E-03   0.369648E+00   0.483309E+01
   0.339000E+04   0.145485E-03   0.349582E-03   0.369638E+00   0.483309E+01
   0.340000E+04   0.145851E-03   0.350469E-03   0.369635E+00   0.483309E+01
   0.341000E+04   0.146213E-03   0.351348E-03   0.369640E+00   0.483309E+01
   0.342000E+04   0.146573E-03   0.352219E-03   0.369650E+00   0.483309E+01
   0.343000E+04   0.146929E-03   0.353080E-03   0.369657E+00   0.483309E+01
   0.344000E+04   0.147282E-03   0.353934E-03   0.369656E+00   0.483309E+01
   0.345000E+04   0.147633E-03   0.354780E-03   0.369649E+00   0.483309E+01
   0.346000E+04   0.147981E-03   0.355619E-03   0.369639E+00   0.483309E+01
   0.347000E+04   0.148327E-03   0.356451E-03   0.369636E+00   0.483309E+01
   0.348000E+04   0.148670E-03   0.357275E-03   0.369641E+00   0.483309E+01
   0.349000E+04   0.149010E-03   0.358090E-03   0.369650E+00   0.483309E+01
   0.350000E+04   0.149347E-03   0.358898E-03   0.369657E+00   0.483309E+01
   0.351000E+04   0.149681E-03   0.359698E-03   0.369656E+00   0.483309E+01
   0.352000E+04   0.150013E-03   0.360491E-03   0.369649E+00   0.483309E+01
   0.353000E+04   0.150343E-03   0.361277E-03   0.369640E+00   0.483309E+01
   0.354000E+04   0.150670E-03   0.362056E-03   0.369637E+00   0.483309E+01
   0.355000E+04   0.150995E-03   0.362828E-03   0.369641E+00   0.483309E+01
   0.356000E+04   0.151317E-03   0.363592E-03   0.369651E+00   0.483309E+01
   0.357000E+04   0.151636E-03   0.364349E-03   0.369657E+00   0.483309E+01
   0.358000E+04   0.151952E-03   0.365098E-03   0.369657E+00   0.483309E+01
   0.359000E+04   0.152266E-03   0.365842E-03   0.369650E+00   0.483309E+01
   0.360000E+04   0.152578E-03   0.366578E-03   0.369642E+00   0.483309E+01
   0.361000E+04   0.152888E-03   0.367309E-03   0.369639E+00   0.483309E+01
   0.362000E+04   0.153196E-03   0.368033E-03   0.369642E+00   0.483309E+01
   0.363000E+04   0.153501E-03   0.368749E-03   0.369651E+00   0.483309E+01
   0.364000E+04   0.153803E-03   0.369459E-03   0.369657E+00   0.483309E+01
   0.365000E+04   0.154103E-03   0.370163E-03   0.369657E+00   0.483309E+01
   0.366000E+04   0.154400E-03   0.370860E-03   0.369650E+00   0.483309E+01
   0.367000E+04   0.154696E-03   0.371552E-03   0.369643E+00   0.483309E+01
   0.368000E+04   0.154990E-03   0.372237E-03   0.369640E+00   0.483309E+01
   0.369000E+04   0.155281E-03   0.372917E-03   0.369643E+00   0.483309E+01
   0.370000E+04   0.155570E-03   0.373591E-03   0.369651E+00   0.483309E+01
   0.371000E+04   0.155857E-03   0.374258E-03   0.369657E+00   0.483309E+01
   0.372000E+04   0.156142E-03   0.374920E-03   0.369656E+00   0.483309E+01
   0.373000E+04   0.156424E-03   0.375576E-03   0.369651E+00   0.483309E+01
   0.374000E+04   0.156704E-03   0.376226E-03   0.369645E+00   0.483309E+01
   0.375000E+04   0.156983E-03   0.376871E-03   0.369642E+00   0.483309E+01
   0.376000E+04   0.157260E-03   0.377512E-03   0.369644E+00   0.483309E+01
   0.377000E+04   0.157535E-03   0.378146E-03   0.369651E+00   0.483309E+01
   0.378000E+04   0.157807E-03   0.378775E-03   0.369656E+00   0.483309E+01
   0.379000E+04   0.158078E-03   0.379399E-03   0.369656E+00   0.483309E+01
   0.380000E+04   0.158346E-03   0.380018E-03   0.369651E+00   0.483309E+01
   0.381000E+04   0.158613E-03   0.380632E-03   0.369647E+00   0.483309E+01
   0.382000E+04   0.158878E-03   0.381241E-03   0.369644E+00   0.483309E+01
   0.383000E+04   0.159141E-03   0.381846E-03   0.369645E+00   0.483309E+01
   0.384000E+04   0.159403E-03   0.382445E-03   0.369651E+00   0.483309E+01
   0.385000E+04   0.159662E-03   0.383040E-03   0.369655E+00   0.483309E+01
   0.386000E+04   0.159920E-03   0.383631E-03   0.369655E+00   0.483309E+01
   0.387000E+04   0.160175E-03   0.384217E-03   0.369652E+00   0.483309E+01
   0.388000E+04   0.160429E-03   0.384798E-03   0.369649E+00   0.483309E+01
   0.389000E+04   0.160682E-03   0.385375E-03   0.369646E+00   0.483309E+01
   0.390000E+04   0.160933E-03   0.385949E-03   0.369646E+00   0.483309E+01
   0.391000E+04   0.161182E-03   0.386518E-03   0.369651E+00   0.483309E+01
   0.392000E+04   0.161430E-03   0.387083E-03   0.369654E+00   0.483309E+01
   0.393000E+04   0.161676E-03   0.387644E-03   0.369655E+00   0.483309E+01