title="breakthrough data set at     5 wells"
variables="time(days)","cavg","cpk","upk","zswi"
zone i=     1295
   0.100000E+02   0.450281E-10   0.667698E-10   0.462892E+00   0.484521E+01
   0.200000E+02   0.109160E-09   0.163793E-09   0.379747E+00   0.482643E+01
   0.300000E+02   0.222367E-09   0.335366E-09   0.379531E+00   0.482643E+01
   0.400000E+02   0.409941E-09   0.619543E-09   0.379613E+00   0.482643E+01
   0.500000E+02   0.706916E-09   0.106901E-08   0.379668E+00   0.482643E+01
   0.600000E+02   0.116152E-08   0.175624E-08   0.379698E+00   0.482643E+01
   0.700000E+02   0.183861E-08   0.277860E-08   0.379730E+00   0.482643E+01
   0.800000E+02   0.282353E-08   0.426399E-08   0.379758E+00   0.482643E+01
   0.900000E+02   0.422542E-08   0.637558E-08   0.379777E+00   0.482643E+01
   0.100000E+03   0.617916E-08   0.931410E-08   0.379796E+00   0.482643E+01
   0.110000E+03   0.884646E-08   0.133189E-07   0.379796E+00   0.482643E+01
   0.120000E+03   0.124152E-07   0.186653E-07   0.379818E+00   0.482643E+01
   0.130000E+03   0.170953E-07   0.256575E-07   0.379838E+00   0.482643E+01
   0.140000E+03   0.231134E-07   0.346194E-07   0.379859E+00   0.482643E+01
   0.150000E+03   0.307059E-07   0.458826E-07   0.379882E+00   0.482643E+01
   0.160000E+03   0.401101E-07   0.597716E-07   0.379908E+00   0.482643E+01
   0.170000E+03   0.515544E-07   0.765887E-07   0.379934E+00   0.482643E+01
   0.180000E+03   0.652489E-07   0.965982E-07   0.379962E+00   0.482643E+01
   0.190000E+03   0.813756E-07   0.120012E-06   0.379991E+00   0.482643E+01
   0.200000E+03   0.100080E-06   0.146980E-06   0.380020E+00   0.482643E+01
   0.210000E+03   0.121465E-06   0.177574E-06   0.380050E+00   0.482643E+01
   0.220000E+03   0.145582E-06   0.211786E-06   0.380081E+00   0.482643E+01
   0.230000E+03   0.172432E-06   0.249524E-06   0.380111E+00   0.482643E+01
   0.240000E+03   0.201956E-06   0.290603E-06   0.380142E+00   0.482643E+01
   0.250000E+03   0.234041E-06   0.334752E-06   0.380172E+00   0.482643E+01
   0.260000E+03   0.268514E-06   0.381615E-06   0.380203E+00   0.482643E+01
   0.270000E+03   0.305148E-06   0.430756E-06   0.380233E+00   0.482643E+01
   0.280000E+03   0.343666E-06   0.481667E-06   0.380264E+00   0.482643E+01
   0.290000E+03   0.383742E-06   0.533781E-06   0.380294E+00   0.482643E+01
   0.300000E+03   0.425012E-06   0.586478E-06   0.380323E+00   0.482643E+01
   0.310000E+03   0.467074E-06   0.639103E-06   0.380353E+00   0.482643E+01
   0.320000E+03   0.509503E-06   0.690968E-06   0.380382E+00   0.482643E+01
   0.330000E+03   0.551846E-06   0.741371E-06   0.380410E+00   0.482643E+01
   0.340000E+03   0.593636E-06   0.789599E-06   0.380439E+00   0.482643E+01
   0.350000E+03   0.634392E-06   0.834938E-06   0.380466E+00   0.482643E+01
   0.360000E+03   0.673626E-06   0.876679E-06   0.380494E+00   0.482643E+01
   0.370000E+03   0.710845E-06   0.914125E-06   0.380521E+00   0.482643E+01
   0.380000E+03   0.745554E-06   0.951880E-06   0.380547E+00   0.482643E+01
   0.390000E+03   0.777265E-06   0.100558E-05   0.380574E+00   0.482643E+01
   0.400000E+03   0.805491E-06   0.105786E-05   0.380599E+00   0.482643E+01
   0.410000E+03   0.829754E-06   0.110842E-05   0.380624E+00   0.482643E+01
   0.420000E+03   0.849587E-06   0.115696E-05   0.380649E+00   0.482643E+01
   0.430000E+03   0.864530E-06   0.120320E-05   0.380673E+00   0.482643E+01
   0.440000E+03   0.874137E-06   0.124687E-05   0.380697E+00   0.482643E+01
   0.450000E+03   0.877969E-06   0.128773E-05   0.380720E+00   0.482643E+01
   0.460000E+03   0.875600E-06   0.132553E-05   0.380743E+00   0.482643E+01
   0.470000E+03   0.866613E-06   0.136005E-05   0.380765E+00   0.482643E+01
   0.480000E+03   0.850603E-06   0.139108E-05   0.380787E+00   0.482643E+01
   0.490000E+03   0.827173E-06   0.141843E-05   0.380809E+00   0.482643E+01
   0.500000E+03   0.795938E-06   0.144189E-05   0.380830E+00   0.482643E+01
   0.510000E+03   0.756526E-06   0.148911E-05   0.380851E+00   0.482643E+01
   0.520000E+03   0.708575E-06   0.155812E-05   0.380871E+00   0.482643E+01
   0.530000E+03   0.651736E-06   0.162787E-05   0.380891E+00   0.482643E+01
   0.540000E+03   0.585677E-06   0.169830E-05   0.380911E+00   0.482643E+01
   0.550000E+03   0.510077E-06   0.176940E-05   0.380930E+00   0.482643E+01
   0.560000E+03   0.424635E-06   0.184112E-05   0.380949E+00   0.482643E+01
   0.570000E+03   0.329066E-06   0.191345E-05   0.380968E+00   0.482643E+01
   0.580000E+03   0.223108E-06   0.198637E-05   0.380986E+00   0.482643E+01
   0.590000E+03   0.106520E-06   0.205988E-05   0.381004E+00   0.482643E+01
   0.600000E+03  -0.209119E-07   0.213399E-05   0.381022E+00   0.482643E+01
   0.610000E+03  -0.159373E-06   0.220869E-05   0.381039E+00   0.482643E+01
   0.620000E+03  -0.309016E-06   0.228400E-05   0.381056E+00   0.482643E+01
   0.630000E+03  -0.469957E-06   0.235994E-05   0.381072E+00   0.482643E+01
   0.640000E+03  -0.642271E-06   0.243655E-05   0.381089E+00   0.482643E+01
   0.650000E+03  -0.825988E-06   0.251384E-05   0.381105E+00   0.482643E+01
   0.660000E+03  -0.102109E-05   0.259185E-05   0.381120E+00   0.482643E+01
   0.670000E+03  -0.122749E-05   0.267062E-05   0.381135E+00   0.482643E+01
   0.680000E+03  -0.144507E-05   0.275019E-05   0.381150E+00   0.482643E+01
   0.690000E+03  -0.167364E-05   0.283060E-05   0.381164E+00   0.482643E+01
   0.700000E+03  -0.191293E-05   0.291188E-05   0.381178E+00   0.482643E+01
   0.710000E+03  -0.216265E-05   0.299406E-05   0.381192E+00   0.482643E+01
   0.720000E+03  -0.242244E-05   0.307719E-05   0.381205E+00   0.482643E+01
   0.730000E+03  -0.269187E-05   0.316127E-05   0.381218E+00   0.482643E+01
   0.740000E+03  -0.297049E-05   0.324635E-05   0.381231E+00   0.482643E+01
   0.750000E+03  -0.325780E-05   0.333243E-05   0.381243E+00   0.482643E+01
   0.760000E+03  -0.355324E-05   0.341952E-05   0.381255E+00   0.482643E+01
   0.770000E+03  -0.385625E-05   0.350762E-05   0.381267E+00   0.482643E+01
   0.780000E+03  -0.416623E-05   0.359675E-05   0.381279E+00   0.482643E+01
   0.790000E+03  -0.448255E-05   0.368689E-05   0.381290E+00   0.482643E+01
   0.800000E+03  -0.480457E-05   0.377803E-05   0.381301E+00   0.482643E+01
   0.810000E+03  -0.513164E-05   0.387015E-05   0.381312E+00   0.482643E+01
   0.820000E+03  -0.546307E-05   0.396323E-05   0.381323E+00   0.482643E+01
   0.830000E+03  -0.579819E-05   0.405724E-05   0.381333E+00   0.482643E+01
   0.840000E+03  -0.613630E-05   0.415215E-05   0.381343E+00   0.482643E+01
   0.850000E+03  -0.647668E-05   0.424791E-05   0.381353E+00   0.482643E+01
   0.860000E+03  -0.681862E-05   0.434449E-05   0.381363E+00   0.482643E+01
   0.870000E+03  -0.716137E-05   0.444184E-05   0.381373E+00   0.482643E+01
   0.880000E+03  -0.750420E-05   0.453990E-05   0.381382E+00   0.482643E+01
   0.890000E+03  -0.784634E-05   0.463863E-05   0.381391E+00   0.482643E+01
   0.900000E+03  -0.818705E-05   0.473798E-05   0.381400E+00   0.482643E+01
   0.910000E+03  -0.852557E-05   0.483789E-05   0.381409E+00   0.482643E+01
   0.920000E+03  -0.886113E-05   0.493831E-05   0.381417E+00   0.482643E+01
   0.930000E+03  -0.919301E-05   0.503921E-05   0.381425E+00   0.482643E+01
   0.940000E+03  -0.952046E-05   0.514054E-05   0.381434E+00   0.482643E+01
   0.950000E+03  -0.984279E-05   0.524226E-05   0.381442E+00   0.482643E+01
   0.960000E+03  -0.101593E-04   0.534435E-05   0.381449E+00   0.482643E+01
   0.970000E+03  -0.104694E-04   0.544677E-05   0.381457E+00   0.482643E+01
   0.980000E+03  -0.107723E-04   0.554951E-05   0.381464E+00   0.482643E+01
   0.990000E+03  -0.110676E-04   0.565256E-05   0.381471E+00   0.482643E+01
   0.100000E+04  -0.113547E-04   0.575591E-05   0.381478E+00   0.482643E+01
   0.101000E+04  -0.116331E-04   0.585954E-05   0.381485E+00   0.482643E+01
   0.102000E+04  -0.119023E-04   0.596348E-05   0.381492E+00   0.482643E+01
   0.103000E+04  -0.121619E-04   0.606771E-05   0.381498E+00   0.482643E+01
   0.104000E+04  -0.124115E-04   0.617224E-05   0.381505E+00   0.482643E+01
   0.105000E+04  -0.126507E-04   0.627710E-05   0.381511E+00   0.482643E+01
   0.106000E+04  -0.128793E-04   0.638228E-05   0.381517E+00   0.482643E+01
   0.107000E+04  -0.130971E-04   0.648782E-05   0.381523E+00   0.482643E+01
   0.108000E+04  -0.133037E-04   0.659371E-05   0.381529E+00   0.482643E+01
   0.109000E+04  -0.134990E-04   0.669999E-05   0.381534E+00   0.482643E+01
   0.110000E+04  -0.136828E-04   0.680667E-05   0.381540E+00   0.482643E+01
   0.111000E+04  -0.138549E-04   0.691377E-05   0.381545E+00   0.482643E+01
   0.112000E+04  -0.140154E-04   0.702131E-05   0.381550E+00   0.482643E+01
   0.113000E+04  -0.141639E-04   0.712931E-05   0.381555E+00   0.482643E+01
   0.114000E+04  -0.143006E-04   0.723778E-05   0.381560E+00   0.482643E+01
   0.115000E+04  -0.144252E-04   0.734674E-05   0.381565E+00   0.482643E+01
   0.116000E+04  -0.145378E-04   0.745620E-05   0.381569E+00   0.482643E+01
   0.117000E+04  -0.146383E-04   0.756617E-05   0.381574E+00   0.482643E+01
   0.118000E+04  -0.147266E-04   0.767665E-05   0.381578E+00   0.482643E+01
   0.119000E+04  -0.148027E-04   0.778765E-05   0.381582E+00   0.482643E+01
   0.120000E+04  -0.148667E-04   0.789918E-05   0.381586E+00   0.482643E+01
   0.121000E+04  -0.149184E-04   0.801124E-05   0.381590E+00   0.482643E+01
   0.122000E+04  -0.149578E-04   0.812382E-05   0.381594E+00   0.482643E+01
   0.123000E+04  -0.149851E-04   0.823693E-05   0.381598E+00   0.482643E+01
   0.124000E+04  -0.150000E-04   0.835055E-05   0.381601E+00   0.482643E+01
   0.125000E+04  -0.150027E-04   0.846470E-05   0.381605E+00   0.482643E+01
   0.126000E+04  -0.149931E-04   0.857935E-05   0.381608E+00   0.482643E+01
   0.127000E+04  -0.149712E-04   0.869452E-05   0.381611E+00   0.482643E+01
   0.128000E+04  -0.149370E-04   0.881019E-05   0.381614E+00   0.482643E+01
   0.129000E+04  -0.148904E-04   0.892635E-05   0.381617E+00   0.482643E+01
   0.130000E+04  -0.148316E-04   0.904301E-05   0.381620E+00   0.482643E+01
   0.131000E+04  -0.147605E-04   0.916015E-05   0.381623E+00   0.482643E+01
   0.132000E+04  -0.146770E-04   0.927777E-05   0.381626E+00   0.482643E+01
   0.133000E+04  -0.145812E-04   0.939587E-05   0.381629E+00   0.482643E+01
   0.134000E+04  -0.144730E-04   0.951444E-05   0.381631E+00   0.482643E+01
   0.135000E+04  -0.143526E-04   0.963348E-05   0.381634E+00   0.482643E+01
   0.136000E+04  -0.142199E-04   0.975299E-05   0.381636E+00   0.482643E+01
   0.137000E+04  -0.140749E-04   0.987298E-05   0.381638E+00   0.482643E+01
   0.138000E+04  -0.139176E-04   0.999344E-05   0.381640E+00   0.482643E+01
   0.139000E+04  -0.137483E-04   0.101144E-04   0.381643E+00   0.482643E+01
   0.140000E+04  -0.135668E-04   0.102358E-04   0.381645E+00   0.482643E+01
   0.141000E+04  -0.133734E-04   0.103578E-04   0.381647E+00   0.482643E+01
   0.142000E+04  -0.131680E-04   0.104802E-04   0.381649E+00   0.482643E+01
   0.143000E+04  -0.129510E-04   0.106033E-04   0.381651E+00   0.482643E+01
   0.144000E+04  -0.127224E-04   0.107268E-04   0.381653E+00   0.482643E+01
   0.145000E+04  -0.124823E-04   0.108510E-04   0.381654E+00   0.482643E+01
   0.146000E+04  -0.122310E-04   0.109757E-04   0.381656E+00   0.482643E+01
   0.147000E+04  -0.119687E-04   0.111010E-04   0.381658E+00   0.482643E+01
   0.148000E+04  -0.116956E-04   0.112270E-04   0.381660E+00   0.482643E+01
   0.149000E+04  -0.114118E-04   0.113535E-04   0.381661E+00   0.482643E+01
   0.150000E+04  -0.111176E-04   0.114807E-04   0.381663E+00   0.482643E+01
   0.151000E+04  -0.108131E-04   0.116085E-04   0.381665E+00   0.482643E+01
   0.152000E+04  -0.104986E-04   0.117369E-04   0.381666E+00   0.482643E+01
   0.153000E+04  -0.101744E-04   0.118659E-04   0.381668E+00   0.482643E+01
   0.154000E+04  -0.984046E-05   0.119954E-04   0.381669E+00   0.482643E+01
   0.155000E+04  -0.949715E-05   0.121255E-04   0.381671E+00   0.482643E+01
   0.156000E+04  -0.914462E-05   0.122560E-04   0.381672E+00   0.482643E+01
   0.157000E+04  -0.878305E-05   0.123871E-04   0.381673E+00   0.482643E+01
   0.158000E+04  -0.841264E-05   0.125186E-04   0.381675E+00   0.482643E+01
   0.159000E+04  -0.803357E-05   0.126505E-04   0.381676E+00   0.482643E+01
   0.160000E+04  -0.764602E-05   0.127828E-04   0.381677E+00   0.482643E+01
   0.161000E+04  -0.725017E-05   0.129156E-04   0.381678E+00   0.482643E+01
   0.162000E+04  -0.684621E-05   0.130486E-04   0.381679E+00   0.482643E+01
   0.163000E+04  -0.643431E-05   0.131821E-04   0.381680E+00   0.482643E+01
   0.164000E+04  -0.601466E-05   0.133158E-04   0.381681E+00   0.482643E+01
   0.165000E+04  -0.558743E-05   0.134499E-04   0.381682E+00   0.482643E+01
   0.166000E+04  -0.515280E-05   0.135843E-04   0.381683E+00   0.482643E+01
   0.167000E+04  -0.471094E-05   0.137190E-04   0.381684E+00   0.482643E+01
   0.168000E+04  -0.426204E-05   0.138539E-04   0.381684E+00   0.482643E+01
   0.169000E+04  -0.380626E-05   0.139891E-04   0.381685E+00   0.482643E+01
   0.170000E+04  -0.334378E-05   0.141246E-04   0.381686E+00   0.482643E+01
   0.171000E+04  -0.287477E-05   0.142602E-04   0.381686E+00   0.482643E+01
   0.172000E+04  -0.239940E-05   0.143961E-04   0.381687E+00   0.482643E+01
   0.173000E+04  -0.191784E-05   0.145323E-04   0.381687E+00   0.482643E+01
   0.174000E+04  -0.143025E-05   0.146686E-04   0.381688E+00   0.482643E+01
   0.175000E+04  -0.936783E-06   0.148051E-04   0.381688E+00   0.482643E+01
   0.176000E+04  -0.437606E-06   0.149418E-04   0.381689E+00   0.482643E+01
   0.177000E+04   0.671330E-07   0.150787E-04   0.381689E+00   0.482643E+01
   0.178000E+04   0.577285E-06   0.152157E-04   0.381690E+00   0.482643E+01
   0.179000E+04   0.109271E-05   0.153530E-04   0.381690E+00   0.482643E+01
   0.180000E+04   0.161326E-05   0.154903E-04   0.381690E+00   0.482643E+01
   0.181000E+04   0.213881E-05   0.156278E-04   0.381690E+00   0.482643E+01
   0.182000E+04   0.266923E-05   0.157654E-04   0.381691E+00   0.482643E+01
   0.183000E+04   0.320440E-05   0.159032E-04   0.381691E+00   0.482643E+01
   0.184000E+04   0.374419E-05   0.160411E-04   0.381691E+00   0.482643E+01
   0.185000E+04   0.428849E-05   0.161791E-04   0.381691E+00   0.482643E+01
   0.186000E+04   0.483719E-05   0.163172E-04   0.381691E+00   0.482643E+01
   0.187000E+04   0.539018E-05   0.164554E-04   0.381691E+00   0.482643E+01
   0.188000E+04   0.594735E-05   0.165937E-04   0.381691E+00   0.482643E+01
   0.189000E+04   0.650860E-05   0.167321E-04   0.381692E+00   0.482643E+01
   0.190000E+04   0.707383E-05   0.168705E-04   0.381692E+00   0.482643E+01
   0.191000E+04   0.764293E-05   0.170091E-04   0.381692E+00   0.482643E+01
   0.192000E+04   0.821581E-05   0.171477E-04   0.381692E+00   0.482643E+01
   0.193000E+04   0.879236E-05   0.172863E-04   0.381692E+00   0.482643E+01
   0.194000E+04   0.937248E-05   0.174251E-04   0.381692E+00   0.482643E+01
   0.195000E+04   0.995607E-05   0.175638E-04   0.381692E+00   0.482643E+01
   0.196000E+04   0.105430E-04   0.177027E-04   0.381691E+00   0.482643E+01
   0.197000E+04   0.111332E-04   0.178415E-04   0.381691E+00   0.482643E+01
   0.198000E+04   0.117266E-04   0.179804E-04   0.381691E+00   0.482643E+01
   0.199000E+04   0.123230E-04   0.181194E-04   0.381691E+00   0.482643E+01
   0.200000E+04   0.129223E-04   0.182583E-04   0.381691E+00   0.482643E+01
   0.201000E+04   0.135244E-04   0.183973E-04   0.381691E+00   0.482643E+01
   0.202000E+04   0.141292E-04   0.185364E-04   0.381691E+00   0.482643E+01
   0.203000E+04   0.147366E-04   0.186754E-04   0.381691E+00   0.482643E+01
   0.204000E+04   0.153465E-04   0.188144E-04   0.381691E+00   0.482643E+01
   0.205000E+04   0.159587E-04   0.189535E-04   0.381690E+00   0.482643E+01
   0.206000E+04   0.165731E-04   0.190926E-04   0.381690E+00   0.482643E+01
   0.207000E+04   0.171896E-04   0.192316E-04   0.381690E+00   0.482643E+01
   0.208000E+04   0.178081E-04   0.193707E-04   0.381690E+00   0.482643E+01
   0.209000E+04   0.184284E-04   0.197122E-04   0.381690E+00   0.482643E+01
   0.210000E+04   0.190505E-04   0.206629E-04   0.381689E+00   0.482643E+01
   0.211000E+04   0.196743E-04   0.216155E-04   0.381689E+00   0.482643E+01
   0.212000E+04   0.202995E-04   0.225699E-04   0.381689E+00   0.482643E+01
   0.213000E+04   0.209262E-04   0.235258E-04   0.381689E+00   0.482643E+01
   0.214000E+04   0.215543E-04   0.244832E-04   0.381688E+00   0.482643E+01
   0.215000E+04   0.221835E-04   0.254419E-04   0.381688E+00   0.482643E+01
   0.216000E+04   0.228139E-04   0.264017E-04   0.381688E+00   0.482643E+01
   0.217000E+04   0.234453E-04   0.273626E-04   0.381688E+00   0.482643E+01
   0.218000E+04   0.240777E-04   0.283244E-04   0.381687E+00   0.482643E+01
   0.219000E+04   0.247110E-04   0.292870E-04   0.381687E+00   0.482643E+01
   0.220000E+04   0.253451E-04   0.302504E-04   0.381687E+00   0.482643E+01
   0.221000E+04   0.259800E-04   0.314239E-04   0.381686E+00   0.482643E+01
   0.222000E+04   0.266155E-04   0.327037E-04   0.381686E+00   0.482643E+01
   0.223000E+04   0.272516E-04   0.339868E-04   0.381686E+00   0.482643E+01
   0.224000E+04   0.278883E-04   0.352730E-04   0.381685E+00   0.482643E+01
   0.225000E+04   0.285255E-04   0.365623E-04   0.381685E+00   0.482643E+01
   0.226000E+04   0.291631E-04   0.378546E-04   0.381685E+00   0.482643E+01
   0.227000E+04   0.298012E-04   0.391497E-04   0.381685E+00   0.482643E+01
   0.228000E+04   0.304396E-04   0.404476E-04   0.381684E+00   0.482643E+01
   0.229000E+04   0.310783E-04   0.417482E-04   0.381684E+00   0.482643E+01
   0.230000E+04   0.317173E-04   0.430515E-04   0.381684E+00   0.482643E+01
   0.231000E+04   0.323565E-04   0.443573E-04   0.381683E+00   0.482643E+01
   0.232000E+04   0.329959E-04   0.456657E-04   0.381683E+00   0.482643E+01
   0.233000E+04   0.336354E-04   0.469764E-04   0.381683E+00   0.482643E+01
   0.234000E+04   0.342751E-04   0.482896E-04   0.381683E+00   0.482643E+01
   0.235000E+04   0.349148E-04   0.496051E-04   0.381682E+00   0.482643E+01
   0.236000E+04   0.355546E-04   0.509229E-04   0.381682E+00   0.482643E+01
   0.237000E+04   0.361943E-04   0.522428E-04   0.381682E+00   0.482643E+01
   0.238000E+04   0.368341E-04   0.535649E-04   0.381681E+00   0.482643E+01
   0.239000E+04   0.374737E-04   0.548890E-04   0.381681E+00   0.482643E+01
   0.240000E+04   0.381132E-04   0.562151E-04   0.381681E+00   0.482643E+01
   0.241000E+04   0.387526E-04   0.575431E-04   0.381681E+00   0.482643E+01
   0.242000E+04   0.393918E-04   0.588729E-04   0.381680E+00   0.482643E+01
   0.243000E+04   0.400308E-04   0.602044E-04   0.381680E+00   0.482643E+01
   0.244000E+04   0.406695E-04   0.615376E-04   0.381680E+00   0.482643E+01
   0.245000E+04   0.413079E-04   0.628723E-04   0.381679E+00   0.482643E+01
   0.246000E+04   0.419460E-04   0.642084E-04   0.381679E+00   0.482643E+01
   0.247000E+04   0.425838E-04   0.655459E-04   0.381679E+00   0.482643E+01
   0.248000E+04   0.432212E-04   0.668847E-04   0.381678E+00   0.482643E+01
   0.249000E+04   0.438582E-04   0.682247E-04   0.381678E+00   0.482643E+01
   0.250000E+04   0.444948E-04   0.695657E-04   0.381678E+00   0.482643E+01
   0.251000E+04   0.451309E-04   0.709077E-04   0.381678E+00   0.482643E+01
   0.252000E+04   0.457665E-04   0.722506E-04   0.381677E+00   0.482643E+01
   0.253000E+04   0.464017E-04   0.735943E-04   0.381677E+00   0.482643E+01
   0.254000E+04   0.470363E-04   0.749386E-04   0.381677E+00   0.482643E+01
   0.255000E+04   0.476704E-04   0.762836E-04   0.381676E+00   0.482643E+01
   0.256000E+04   0.483038E-04   0.776290E-04   0.381676E+00   0.482643E+01
   0.257000E+04   0.489367E-04   0.789748E-04   0.381676E+00   0.482643E+01
   0.258000E+04   0.495690E-04   0.803209E-04   0.381675E+00   0.482643E+01
   0.259000E+04   0.502006E-04   0.816673E-04   0.381675E+00   0.482643E+01
   0.260000E+04   0.508316E-04   0.830137E-04   0.381675E+00   0.482643E+01
   0.261000E+04   0.514618E-04   0.843601E-04   0.381674E+00   0.482643E+01
   0.262000E+04   0.520914E-04   0.857065E-04   0.381674E+00   0.482643E+01
   0.263000E+04   0.527202E-04   0.870527E-04   0.381673E+00   0.482643E+01
   0.264000E+04   0.533482E-04   0.883986E-04   0.381673E+00   0.482643E+01
   0.265000E+04   0.539755E-04   0.897443E-04   0.381673E+00   0.482643E+01
   0.266000E+04   0.546019E-04   0.910895E-04   0.381672E+00   0.482643E+01
   0.267000E+04   0.552275E-04   0.924342E-04   0.381672E+00   0.482643E+01
   0.268000E+04   0.558522E-04   0.937783E-04   0.381671E+00   0.482643E+01
   0.269000E+04   0.564761E-04   0.951218E-04   0.381671E+00   0.482643E+01
   0.270000E+04   0.570991E-04   0.964646E-04   0.381671E+00   0.482643E+01
   0.271000E+04   0.577212E-04   0.978066E-04   0.381670E+00   0.482643E+01
   0.272000E+04   0.583423E-04   0.991477E-04   0.381670E+00   0.482643E+01
   0.273000E+04   0.589624E-04   0.100488E-03   0.381669E+00   0.482643E+01
   0.274000E+04   0.595816E-04   0.101827E-03   0.381669E+00   0.482643E+01
   0.275000E+04   0.601998E-04   0.103165E-03   0.381668E+00   0.482643E+01
   0.276000E+04   0.608169E-04   0.104503E-03   0.381668E+00   0.482643E+01
   0.277000E+04   0.614330E-04   0.105839E-03   0.381668E+00   0.482643E+01
   0.278000E+04   0.620481E-04   0.107174E-03   0.381667E+00   0.482643E+01
   0.279000E+04   0.626621E-04   0.108507E-03   0.381667E+00   0.482643E+01
   0.280000E+04   0.632749E-04   0.109840E-03   0.381666E+00   0.482643E+01
   0.281000E+04   0.638867E-04   0.111171E-03   0.381666E+00   0.482643E+01
   0.282000E+04   0.644973E-04   0.112501E-03   0.381665E+00   0.482643E+01
   0.283000E+04   0.651068E-04   0.113829E-03   0.381665E+00   0.482643E+01
   0.284000E+04   0.657151E-04   0.115156E-03   0.381664E+00   0.482643E+01
   0.285000E+04   0.663223E-04   0.116482E-03   0.381664E+00   0.482643E+01
   0.286000E+04   0.669282E-04   0.117806E-03   0.381663E+00   0.482643E+01
   0.287000E+04   0.675330E-04   0.119128E-03   0.381663E+00   0.482643E+01
   0.288000E+04   0.681365E-04   0.120450E-03   0.381662E+00   0.482643E+01
   0.289000E+04   0.687387E-04   0.121769E-03   0.381662E+00   0.482643E+01
   0.290000E+04   0.693398E-04   0.123087E-03   0.381661E+00   0.482643E+01
   0.291000E+04   0.699395E-04   0.124404E-03   0.381661E+00   0.482643E+01
   0.292000E+04   0.705380E-04   0.125718E-03   0.381660E+00   0.482643E+01
   0.293000E+04   0.711352E-04   0.127031E-03   0.381660E+00   0.482643E+01
   0.294000E+04   0.717310E-04   0.128343E-03   0.381659E+00   0.482643E+01
   0.295000E+04   0.723256E-04   0.129653E-03   0.381659E+00   0.482643E+01
   0.296000E+04   0.729188E-04   0.130961E-03   0.381658E+00   0.482643E+01
   0.297000E+04   0.735106E-04   0.132267E-03   0.381658E+00   0.482643E+01
   0.298000E+04   0.741011E-04   0.133571E-03   0.381657E+00   0.482643E+01
   0.299000E+04   0.746902E-04   0.134874E-03   0.381657E+00   0.482643E+01
   0.300000E+04   0.752779E-04   0.136175E-03   0.381656E+00   0.482643E+01
   0.301000E+04   0.758642E-04   0.137474E-03   0.381656E+00   0.482643E+01
   0.302000E+04   0.764491E-04   0.138771E-03   0.381655E+00   0.482643E+01
   0.303000E+04   0.770325E-04   0.140066E-03   0.381655E+00   0.482643E+01
   0.304000E+04   0.776145E-04   0.141359E-03   0.381654E+00   0.482643E+01
   0.305000E+04   0.781951E-04   0.142650E-03   0.381654E+00   0.482643E+01
   0.306000E+04   0.787741E-04   0.143939E-03   0.381653E+00   0.482643E+01
   0.307000E+04   0.793516E-04   0.145226E-03   0.381653E+00   0.482643E+01
   0.308000E+04   0.799277E-04   0.146511E-03   0.381652E+00   0.482643E+01
   0.309000E+04   0.805021E-04   0.147794E-03   0.381652E+00   0.482643E+01
   0.310000E+04   0.810751E-04   0.149074E-03   0.381651E+00   0.482643E+01
   0.311000E+04   0.816465E-04   0.150353E-03   0.381651E+00   0.482643E+01
   0.312000E+04   0.822162E-04   0.151629E-03   0.381650E+00   0.482643E+01
   0.313000E+04   0.827844E-04   0.152903E-03   0.381650E+00   0.482643E+01
   0.314000E+04   0.833510E-04   0.154174E-03   0.381649E+00   0.482643E+01
   0.315000E+04   0.839160E-04   0.155443E-03   0.381649E+00   0.482643E+01
   0.316000E+04   0.844793E-04   0.156710E-03   0.381648E+00   0.482643E+01
   0.317000E+04   0.850409E-04   0.157974E-03   0.381648E+00   0.482643E+01
   0.318000E+04   0.856008E-04   0.159236E-03   0.381647E+00   0.482643E+01
   0.319000E+04   0.861591E-04   0.160495E-03   0.381647E+00   0.482643E+01
   0.320000E+04   0.867156E-04   0.161751E-03   0.381646E+00   0.482643E+01
   0.321000E+04   0.872704E-04   0.163005E-03   0.381646E+00   0.482643E+01
   0.322000E+04   0.878234E-04   0.164256E-03   0.381645E+00   0.482643E+01
   0.323000E+04   0.883747E-04   0.165504E-03   0.381645E+00   0.482643E+01
   0.324000E+04   0.889242E-04   0.166750E-03   0.381644E+00   0.482643E+01
   0.325000E+04   0.894719E-04   0.167992E-03   0.381644E+00   0.482643E+01
   0.326000E+04   0.900178E-04   0.169232E-03   0.381644E+00   0.482643E+01
   0.327000E+04   0.905618E-04   0.170469E-03   0.381643E+00   0.482643E+01
   0.328000E+04   0.911040E-04   0.171702E-03   0.381643E+00   0.482643E+01
   0.329000E+04   0.916444E-04   0.172933E-03   0.381642E+00   0.482643E+01
   0.330000E+04   0.921829E-04   0.174160E-03   0.381642E+00   0.482643E+01
   0.331000E+04   0.927195E-04   0.175385E-03   0.381641E+00   0.482643E+01
   0.332000E+04   0.932542E-04   0.176606E-03   0.381641E+00   0.482643E+01
   0.333000E+04   0.937871E-04   0.177824E-03   0.381640E+00   0.482643E+01
   0.334000E+04   0.943180E-04   0.179038E-03   0.381640E+00   0.482643E+01
   0.335000E+04   0.948470E-04   0.180250E-03   0.381639E+00   0.482643E+01
   0.336000E+04   0.953741E-04   0.181458E-03   0.381639E+00   0.482643E+01
   0.337000E+04   0.958992E-04   0.182662E-03   0.381638E+00   0.482643E+01
   0.338000E+04   0.964224E-04   0.183863E-03   0.381638E+00   0.482643E+01
   0.339000E+04   0.969437E-04   0.185061E-03   0.381637E+00   0.482643E+01
   0.340000E+04   0.974630E-04   0.186255E-03   0.381637E+00   0.482643E+01
   0.341000E+04   0.979803E-04   0.187446E-03   0.381636E+00   0.482643E+01
   0.342000E+04   0.984957E-04   0.188633E-03   0.381636E+00   0.482643E+01
   0.343000E+04   0.990091E-04   0.189816E-03   0.381636E+00   0.482643E+01
   0.344000E+04   0.995206E-04   0.190996E-03   0.381635E+00   0.482643E+01
   0.345000E+04   0.100030E-03   0.192172E-03   0.381635E+00   0.482643E+01
   0.346000E+04   0.100538E-03   0.193344E-03   0.381634E+00   0.482643E+01
   0.347000E+04   0.101043E-03   0.194513E-03   0.381634E+00   0.482643E+01
   0.348000E+04   0.101547E-03   0.195678E-03   0.381633E+00   0.482643E+01
   0.349000E+04   0.102048E-03   0.196839E-03   0.381633E+00   0.482643E+01
   0.350000E+04   0.102548E-03   0.197996E-03   0.381632E+00   0.482643E+01
   0.351000E+04   0.103046E-03   0.199150E-03   0.381632E+00   0.482643E+01
   0.352000E+04   0.103542E-03   0.200299E-03   0.381632E+00   0.482643E+01
   0.353000E+04   0.104035E-03   0.201445E-03   0.381631E+00   0.482643E+01
   0.354000E+04   0.104527E-03   0.202587E-03   0.381631E+00   0.482643E+01
   0.355000E+04   0.105017E-03   0.203725E-03   0.381630E+00   0.482643E+01
   0.356000E+04   0.105505E-03   0.204859E-03   0.381630E+00   0.482643E+01
   0.357000E+04   0.105991E-03   0.205990E-03   0.381629E+00   0.482643E+01
   0.358000E+04   0.106475E-03   0.207116E-03   0.381629E+00   0.482643E+01
   0.359000E+04   0.106957E-03   0.208238E-03   0.381628E+00   0.482643E+01
   0.360000E+04   0.107437E-03   0.209357E-03   0.381628E+00   0.482643E+01
   0.361000E+04   0.107915E-03   0.210471E-03   0.381628E+00   0.482643E+01
   0.362000E+04   0.108392E-03   0.211582E-03   0.381627E+00   0.482643E+01
   0.363000E+04   0.108866E-03   0.212688E-03   0.381627E+00   0.482643E+01
   0.364000E+04   0.109339E-03   0.213791E-03   0.381626E+00   0.482643E+01
   0.365000E+04   0.109809E-03   0.214889E-03   0.381626E+00   0.482643E+01
   0.366000E+04   0.110278E-03   0.215984E-03   0.381625E+00   0.482643E+01
   0.367000E+04   0.110745E-03   0.217074E-03   0.381625E+00   0.482643E+01
   0.368000E+04   0.111210E-03   0.218161E-03   0.381625E+00   0.482643E+01
   0.369000E+04   0.111673E-03   0.219243E-03   0.381624E+00   0.482643E+01
   0.370000E+04   0.112134E-03   0.220322E-03   0.381624E+00   0.482643E+01
   0.371000E+04   0.112593E-03   0.221396E-03   0.381623E+00   0.482643E+01
   0.372000E+04   0.113051E-03   0.222467E-03   0.381623E+00   0.482643E+01
   0.373000E+04   0.113507E-03   0.223533E-03   0.381623E+00   0.482643E+01
   0.374000E+04   0.113960E-03   0.224596E-03   0.381622E+00   0.482643E+01
   0.375000E+04   0.114412E-03   0.225654E-03   0.381622E+00   0.482643E+01
   0.376000E+04   0.114862E-03   0.226709E-03   0.381621E+00   0.482643E+01
   0.377000E+04   0.115311E-03   0.227759E-03   0.381621E+00   0.482643E+01
   0.378000E+04   0.115757E-03   0.228806E-03   0.381621E+00   0.482643E+01
   0.379000E+04   0.116202E-03   0.229849E-03   0.381620E+00   0.482643E+01
   0.380000E+04   0.116645E-03   0.230887E-03   0.381620E+00   0.482643E+01
   0.381000E+04   0.117086E-03   0.231922E-03   0.381620E+00   0.482643E+01
   0.382000E+04   0.117526E-03   0.232952E-03   0.381619E+00   0.482643E+01
   0.383000E+04   0.117963E-03   0.233979E-03   0.381619E+00   0.482643E+01
   0.384000E+04   0.118399E-03   0.235002E-03   0.381618E+00   0.482643E+01
   0.385000E+04   0.118834E-03   0.236021E-03   0.381618E+00   0.482643E+01
   0.386000E+04   0.119266E-03   0.237036E-03   0.381618E+00   0.482643E+01
   0.387000E+04   0.119697E-03   0.238047E-03   0.381617E+00   0.482643E+01
   0.388000E+04   0.120126E-03   0.239054E-03   0.381617E+00   0.482643E+01
   0.389000E+04   0.120554E-03   0.240057E-03   0.381617E+00   0.482643E+01
   0.390000E+04   0.120979E-03   0.241056E-03   0.381616E+00   0.482643E+01
   0.391000E+04   0.121403E-03   0.242052E-03   0.381616E+00   0.482643E+01
   0.392000E+04   0.121826E-03   0.243043E-03   0.381616E+00   0.482643E+01
   0.393000E+04   0.122246E-03   0.244031E-03   0.381615E+00   0.482643E+01