title="breakthrough data set at     5 wells"
variables="time(days)","cavg","cpk","upk","zswi"
zone i=     1295
   0.100000E+02   0.526183E-10   0.846744E-10   0.457729E+00   0.485371E+01
   0.200000E+02   0.121022E-09   0.200111E-09   0.383990E+00   0.483449E+01
   0.300000E+02   0.241698E-09   0.405019E-09   0.383777E+00   0.483449E+01
   0.400000E+02   0.439184E-09   0.740083E-09   0.383857E+00   0.483449E+01
   0.500000E+02   0.744928E-09   0.125685E-08   0.383942E+00   0.483449E+01
   0.600000E+02   0.119858E-08   0.201967E-08   0.384025E+00   0.483449E+01
   0.700000E+02   0.184842E-08   0.310619E-08   0.384111E+00   0.483449E+01
   0.800000E+02   0.275342E-08   0.461066E-08   0.384183E+00   0.483449E+01
   0.900000E+02   0.398263E-08   0.664290E-08   0.384248E+00   0.483449E+01
   0.100000E+03   0.562077E-08   0.933725E-08   0.384238E+00   0.483449E+01
   0.110000E+03   0.775518E-08   0.128313E-07   0.384307E+00   0.483449E+01
   0.120000E+03   0.104879E-07   0.172863E-07   0.384367E+00   0.483449E+01
   0.130000E+03   0.139310E-07   0.228789E-07   0.384422E+00   0.483449E+01
   0.140000E+03   0.182052E-07   0.298000E-07   0.384472E+00   0.483449E+01
   0.150000E+03   0.234388E-07   0.382525E-07   0.384519E+00   0.483449E+01
   0.160000E+03   0.297659E-07   0.484488E-07   0.384563E+00   0.483449E+01
   0.170000E+03   0.373242E-07   0.606085E-07   0.384605E+00   0.483449E+01
   0.180000E+03   0.462534E-07   0.749563E-07   0.384645E+00   0.483449E+01
   0.190000E+03   0.566943E-07   0.917205E-07   0.384683E+00   0.483449E+01
   0.200000E+03   0.687869E-07   0.111131E-06   0.384720E+00   0.483449E+01
   0.210000E+03   0.826695E-07   0.133418E-06   0.384756E+00   0.483449E+01
   0.220000E+03   0.984777E-07   0.158813E-06   0.384790E+00   0.483449E+01
   0.230000E+03   0.116343E-06   0.187546E-06   0.384823E+00   0.483449E+01
   0.240000E+03   0.136393E-06   0.219846E-06   0.384855E+00   0.483449E+01
   0.250000E+03   0.158749E-06   0.255941E-06   0.384886E+00   0.483449E+01
   0.260000E+03   0.183531E-06   0.296061E-06   0.384915E+00   0.483449E+01
   0.270000E+03   0.210856E-06   0.340430E-06   0.384943E+00   0.483449E+01
   0.280000E+03   0.240835E-06   0.389268E-06   0.384971E+00   0.483449E+01
   0.290000E+03   0.273573E-06   0.442782E-06   0.384998E+00   0.483449E+01
   0.300000E+03   0.309171E-06   0.501170E-06   0.385024E+00   0.483449E+01
   0.310000E+03   0.347714E-06   0.564614E-06   0.385047E+00   0.483449E+01
   0.320000E+03   0.389266E-06   0.633269E-06   0.385071E+00   0.483449E+01
   0.330000E+03   0.433863E-06   0.707260E-06   0.385097E+00   0.483449E+01
   0.340000E+03   0.481526E-06   0.786698E-06   0.385119E+00   0.483449E+01
   0.350000E+03   0.532247E-06   0.871653E-06   0.385140E+00   0.483449E+01
   0.360000E+03   0.585979E-06   0.962142E-06   0.385162E+00   0.483449E+01
   0.370000E+03   0.642642E-06   0.105815E-05   0.385203E+00   0.483449E+01
   0.380000E+03   0.702149E-06   0.115964E-05   0.385224E+00   0.483449E+01
   0.390000E+03   0.764357E-06   0.126652E-05   0.385248E+00   0.483449E+01
   0.400000E+03   0.829102E-06   0.137869E-05   0.385267E+00   0.483449E+01
   0.410000E+03   0.896159E-06   0.149599E-05   0.385285E+00   0.483449E+01
   0.420000E+03   0.965245E-06   0.161819E-05   0.385300E+00   0.483449E+01
   0.430000E+03   0.103601E-05   0.174498E-05   0.385317E+00   0.483449E+01
   0.440000E+03   0.110804E-05   0.187594E-05   0.385321E+00   0.483449E+01
   0.450000E+03   0.118089E-05   0.201067E-05   0.385343E+00   0.483449E+01
   0.460000E+03   0.125404E-05   0.214859E-05   0.385360E+00   0.483449E+01
   0.470000E+03   0.132696E-05   0.228910E-05   0.385372E+00   0.483449E+01
   0.480000E+03   0.139907E-05   0.243154E-05   0.385383E+00   0.483449E+01
   0.490000E+03   0.146972E-05   0.257510E-05   0.385397E+00   0.483449E+01
   0.500000E+03   0.153826E-05   0.271895E-05   0.385408E+00   0.483449E+01
   0.510000E+03   0.160394E-05   0.286217E-05   0.385418E+00   0.483449E+01
   0.520000E+03   0.166598E-05   0.300379E-05   0.385431E+00   0.483449E+01
   0.530000E+03   0.172357E-05   0.314283E-05   0.385441E+00   0.483449E+01
   0.540000E+03   0.177585E-05   0.327829E-05   0.385450E+00   0.483449E+01
   0.550000E+03   0.182189E-05   0.340916E-05   0.385461E+00   0.483449E+01
   0.560000E+03   0.186074E-05   0.353449E-05   0.385470E+00   0.483449E+01
   0.570000E+03   0.189143E-05   0.365332E-05   0.385479E+00   0.483449E+01
   0.580000E+03   0.191292E-05   0.376467E-05   0.385489E+00   0.483449E+01
   0.590000E+03   0.192416E-05   0.386754E-05   0.385498E+00   0.483449E+01
   0.600000E+03   0.192406E-05   0.396093E-05   0.385506E+00   0.483449E+01
   0.610000E+03   0.191153E-05   0.404373E-05   0.385516E+00   0.483449E+01
   0.620000E+03   0.188546E-05   0.411480E-05   0.385524E+00   0.483449E+01
   0.630000E+03   0.184476E-05   0.417297E-05   0.385531E+00   0.483449E+01
   0.640000E+03   0.178831E-05   0.421696E-05   0.385541E+00   0.483449E+01
   0.650000E+03   0.171507E-05   0.425376E-05   0.385548E+00   0.483449E+01
   0.660000E+03   0.162398E-05   0.437778E-05   0.385555E+00   0.483449E+01
   0.670000E+03   0.151402E-05   0.449689E-05   0.385563E+00   0.483449E+01
   0.680000E+03   0.138421E-05   0.461039E-05   0.385570E+00   0.483449E+01
   0.690000E+03   0.123357E-05   0.471757E-05   0.385575E+00   0.483449E+01
   0.700000E+03   0.106118E-05   0.481771E-05   0.385583E+00   0.483449E+01
   0.710000E+03   0.866117E-06   0.491013E-05   0.385591E+00   0.483449E+01
   0.720000E+03   0.647520E-06   0.499414E-05   0.385601E+00   0.483449E+01
   0.730000E+03   0.404541E-06   0.506914E-05   0.385611E+00   0.483449E+01
   0.740000E+03   0.136342E-06   0.513459E-05   0.385617E+00   0.483449E+01
   0.750000E+03  -0.157844E-06   0.518999E-05   0.385621E+00   0.483449E+01
   0.760000E+03  -0.478726E-06   0.523491E-05   0.385624E+00   0.483449E+01
   0.770000E+03  -0.826899E-06   0.526898E-05   0.385630E+00   0.483449E+01
   0.780000E+03  -0.120290E-05   0.529191E-05   0.385637E+00   0.483449E+01
   0.790000E+03  -0.160714E-05   0.530347E-05   0.385647E+00   0.483449E+01
   0.800000E+03  -0.204000E-05   0.530351E-05   0.385656E+00   0.483449E+01
   0.810000E+03  -0.250179E-05   0.529189E-05   0.385661E+00   0.483449E+01
   0.820000E+03  -0.299368E-05   0.526783E-05   0.385661E+00   0.483449E+01
   0.830000E+03  -0.351569E-05   0.523124E-05   0.385660E+00   0.483449E+01
   0.840000E+03  -0.406801E-05   0.518202E-05   0.385661E+00   0.483449E+01
   0.850000E+03  -0.465072E-05   0.512010E-05   0.385668E+00   0.483449E+01
   0.860000E+03  -0.526380E-05   0.504545E-05   0.385674E+00   0.483449E+01
   0.870000E+03  -0.590579E-05   0.495907E-05   0.385680E+00   0.483449E+01
   0.880000E+03  -0.657662E-05   0.486081E-05   0.385690E+00   0.483449E+01
   0.890000E+03  -0.727594E-05   0.475083E-05   0.385695E+00   0.483449E+01
   0.900000E+03  -0.800313E-05   0.462925E-05   0.385704E+00   0.483449E+01
   0.910000E+03  -0.875768E-05   0.449622E-05   0.385711E+00   0.483449E+01
   0.920000E+03  -0.953892E-05   0.440223E-05   0.385720E+00   0.483449E+01
   0.930000E+03  -0.103475E-04   0.445572E-05   0.385717E+00   0.483449E+01
   0.940000E+03  -0.111820E-04   0.450628E-05   0.385716E+00   0.483449E+01
   0.950000E+03  -0.120412E-04   0.455380E-05   0.385719E+00   0.483449E+01
   0.960000E+03  -0.129240E-04   0.459822E-05   0.385722E+00   0.483449E+01
   0.970000E+03  -0.138291E-04   0.463949E-05   0.385723E+00   0.483449E+01
   0.980000E+03  -0.147534E-04   0.467756E-05   0.385732E+00   0.483449E+01
   0.990000E+03  -0.156964E-04   0.471244E-05   0.385741E+00   0.483449E+01
   0.100000E+04  -0.166570E-04   0.474411E-05   0.385752E+00   0.483449E+01
   0.101000E+04  -0.176340E-04   0.477258E-05   0.385760E+00   0.483449E+01
   0.102000E+04  -0.186266E-04   0.479787E-05   0.385764E+00   0.483449E+01
   0.103000E+04  -0.196337E-04   0.481997E-05   0.385768E+00   0.483449E+01
   0.104000E+04  -0.206541E-04   0.483886E-05   0.385774E+00   0.483449E+01
   0.105000E+04  -0.216869E-04   0.485456E-05   0.385777E+00   0.483449E+01
   0.106000E+04  -0.227312E-04   0.486708E-05   0.385779E+00   0.483449E+01
   0.107000E+04  -0.237864E-04   0.487645E-05   0.385782E+00   0.483449E+01
   0.108000E+04  -0.248514E-04   0.488271E-05   0.385791E+00   0.483449E+01
   0.109000E+04  -0.259256E-04   0.488588E-05   0.385797E+00   0.483449E+01
   0.110000E+04  -0.270084E-04   0.488598E-05   0.385802E+00   0.483449E+01
   0.111000E+04  -0.280991E-04   0.488306E-05   0.385804E+00   0.483449E+01
   0.112000E+04  -0.291971E-04   0.487714E-05   0.385807E+00   0.483449E+01
   0.113000E+04  -0.303020E-04   0.486828E-05   0.385809E+00   0.483449E+01
   0.114000E+04  -0.314134E-04   0.485654E-05   0.385812E+00   0.483449E+01
   0.115000E+04  -0.325311E-04   0.484199E-05   0.385817E+00   0.483449E+01
   0.116000E+04  -0.336547E-04   0.482467E-05   0.385825E+00   0.483449E+01
   0.117000E+04  -0.347840E-04   0.480465E-05   0.385830E+00   0.483449E+01
   0.118000E+04  -0.359191E-04   0.478200E-05   0.385833E+00   0.483449E+01
   0.119000E+04  -0.370600E-04   0.475679E-05   0.385833E+00   0.483449E+01
   0.120000E+04  -0.382067E-04   0.472910E-05   0.385836E+00   0.483449E+01
   0.121000E+04  -0.393596E-04   0.469903E-05   0.385838E+00   0.483449E+01
   0.122000E+04  -0.405191E-04   0.466666E-05   0.385844E+00   0.483449E+01
   0.123000E+04  -0.416856E-04   0.463208E-05   0.385848E+00   0.483449E+01
   0.124000E+04  -0.428595E-04   0.459536E-05   0.385854E+00   0.483449E+01
   0.125000E+04  -0.440412E-04   0.455659E-05   0.385857E+00   0.483449E+01
   0.126000E+04  -0.452310E-04   0.451583E-05   0.385859E+00   0.483449E+01
   0.127000E+04  -0.464293E-04   0.447318E-05   0.385860E+00   0.483449E+01
   0.128000E+04  -0.476363E-04   0.442870E-05   0.385863E+00   0.483449E+01
   0.129000E+04  -0.488521E-04   0.438247E-05   0.385866E+00   0.483449E+01
   0.130000E+04  -0.500767E-04   0.433455E-05   0.385872E+00   0.483449E+01
   0.131000E+04  -0.513098E-04   0.428498E-05   0.385875E+00   0.483449E+01
   0.132000E+04  -0.525509E-04   0.423383E-05   0.385881E+00   0.483449E+01
   0.133000E+04  -0.537996E-04   0.418115E-05   0.385883E+00   0.483449E+01
   0.134000E+04  -0.550552E-04   0.412700E-05   0.385886E+00   0.483449E+01
   0.135000E+04  -0.563172E-04   0.407145E-05   0.385888E+00   0.483449E+01
   0.136000E+04  -0.575850E-04   0.401455E-05   0.385890E+00   0.483449E+01
   0.137000E+04  -0.588578E-04   0.395634E-05   0.385890E+00   0.483449E+01
   0.138000E+04  -0.601348E-04   0.389689E-05   0.385895E+00   0.483449E+01
   0.139000E+04  -0.614149E-04   0.383624E-05   0.385898E+00   0.483449E+01
   0.140000E+04  -0.626968E-04   0.377442E-05   0.385904E+00   0.483449E+01
   0.141000E+04  -0.639796E-04   0.371148E-05   0.385907E+00   0.483449E+01
   0.142000E+04  -0.652623E-04   0.364747E-05   0.385911E+00   0.483449E+01
   0.143000E+04  -0.665443E-04   0.358245E-05   0.385911E+00   0.483449E+01
   0.144000E+04  -0.678252E-04   0.351646E-05   0.385911E+00   0.483449E+01
   0.145000E+04  -0.691044E-04   0.344958E-05   0.385912E+00   0.483449E+01
   0.146000E+04  -0.703812E-04   0.338187E-05   0.385917E+00   0.483449E+01
   0.147000E+04  -0.716544E-04   0.331334E-05   0.385921E+00   0.483449E+01
   0.148000E+04  -0.729229E-04   0.324400E-05   0.385925E+00   0.483449E+01
   0.149000E+04  -0.741854E-04   0.317381E-05   0.385928E+00   0.483449E+01
   0.150000E+04  -0.754407E-04   0.310280E-05   0.385932E+00   0.483449E+01
   0.151000E+04  -0.766882E-04   0.303100E-05   0.385932E+00   0.483449E+01
   0.152000E+04  -0.779279E-04   0.295844E-05   0.385931E+00   0.483449E+01
   0.153000E+04  -0.791594E-04   0.288523E-05   0.385933E+00   0.483449E+01
   0.154000E+04  -0.803824E-04   0.281144E-05   0.385938E+00   0.483449E+01
   0.155000E+04  -0.815957E-04   0.273710E-05   0.385940E+00   0.483449E+01
   0.156000E+04  -0.827981E-04   0.266214E-05   0.385943E+00   0.483449E+01
   0.157000E+04  -0.839881E-04   0.258649E-05   0.385947E+00   0.483449E+01
   0.158000E+04  -0.851645E-04   0.251016E-05   0.385952E+00   0.483449E+01
   0.159000E+04  -0.863270E-04   0.243314E-05   0.385951E+00   0.483449E+01
   0.160000E+04  -0.874757E-04   0.235551E-05   0.385947E+00   0.483449E+01
   0.161000E+04  -0.886105E-04   0.227740E-05   0.385949E+00   0.483449E+01
   0.162000E+04  -0.897311E-04   0.219890E-05   0.385953E+00   0.483449E+01
   0.163000E+04  -0.908363E-04   0.211998E-05   0.385956E+00   0.483449E+01
   0.164000E+04  -0.919248E-04   0.204056E-05   0.385958E+00   0.483449E+01
   0.165000E+04  -0.929951E-04   0.196054E-05   0.385963E+00   0.483449E+01
   0.166000E+04  -0.940464E-04   0.187994E-05   0.385968E+00   0.483449E+01
   0.167000E+04  -0.950789E-04   0.179881E-05   0.385968E+00   0.483449E+01
   0.168000E+04  -0.960933E-04   0.171726E-05   0.385964E+00   0.483449E+01
   0.169000E+04  -0.970898E-04   0.163547E-05   0.385964E+00   0.483449E+01
   0.170000E+04  -0.980676E-04   0.155351E-05   0.385969E+00   0.483449E+01
   0.171000E+04  -0.990255E-04   0.147130E-05   0.385977E+00   0.483449E+01
   0.172000E+04  -0.999617E-04   0.138869E-05   0.385981E+00   0.483449E+01
   0.173000E+04  -0.100875E-03   0.130556E-05   0.385982E+00   0.483449E+01
   0.174000E+04  -0.101766E-03   0.122196E-05   0.385984E+00   0.483449E+01
   0.175000E+04  -0.102636E-03   0.113800E-05   0.385981E+00   0.483449E+01
   0.176000E+04  -0.103485E-03   0.105391E-05   0.385979E+00   0.483449E+01
   0.177000E+04  -0.104314E-03   0.969879E-06   0.385977E+00   0.483449E+01
   0.178000E+04  -0.105122E-03   0.885936E-06   0.385984E+00   0.483449E+01
   0.179000E+04  -0.105907E-03   0.801907E-06   0.385993E+00   0.483449E+01
   0.180000E+04  -0.106668E-03   0.717583E-06   0.386001E+00   0.483449E+01
   0.181000E+04  -0.107403E-03   0.632851E-06   0.386002E+00   0.483449E+01
   0.182000E+04  -0.108114E-03   0.547765E-06   0.385997E+00   0.483449E+01
   0.183000E+04  -0.108804E-03   0.462506E-06   0.385993E+00   0.483449E+01
   0.184000E+04  -0.109473E-03   0.377386E-06   0.385991E+00   0.483449E+01
   0.185000E+04  -0.110120E-03   0.292595E-06   0.385994E+00   0.483449E+01
   0.186000E+04  -0.110745E-03   0.208010E-06   0.385998E+00   0.483449E+01
   0.187000E+04  -0.111344E-03   0.123389E-06   0.386008E+00   0.483449E+01
   0.188000E+04  -0.111918E-03   0.384887E-07   0.386015E+00   0.483449E+01
   0.189000E+04  -0.112466E-03  -0.467113E-07   0.386017E+00   0.483449E+01
   0.190000E+04  -0.112990E-03  -0.132166E-06   0.386011E+00   0.483449E+01
   0.191000E+04  -0.113492E-03  -0.217632E-06   0.386001E+00   0.483449E+01
   0.192000E+04  -0.113974E-03  -0.302740E-06   0.386001E+00   0.483449E+01
   0.193000E+04  -0.114432E-03  -0.387392E-06   0.386007E+00   0.483449E+01
   0.194000E+04  -0.114866E-03  -0.471775E-06   0.386018E+00   0.483449E+01
   0.195000E+04  -0.115273E-03  -0.556230E-06   0.386024E+00   0.483449E+01
   0.196000E+04  -0.115653E-03  -0.640946E-06   0.386026E+00   0.483449E+01
   0.197000E+04  -0.116008E-03  -0.725886E-06   0.386026E+00   0.483449E+01
   0.198000E+04  -0.116341E-03  -0.810897E-06   0.386020E+00   0.483449E+01
   0.199000E+04  -0.116652E-03  -0.895597E-06   0.386014E+00   0.483449E+01
   0.200000E+04  -0.116941E-03  -0.979709E-06   0.386013E+00   0.483449E+01
   0.201000E+04  -0.117206E-03  -0.106325E-05   0.386021E+00   0.483449E+01
   0.202000E+04  -0.117445E-03  -0.114647E-05   0.386033E+00   0.483449E+01
   0.203000E+04  -0.117657E-03  -0.122970E-05   0.386040E+00   0.483449E+01
   0.204000E+04  -0.117843E-03  -0.131303E-05   0.386038E+00   0.483449E+01
   0.205000E+04  -0.118007E-03  -0.139643E-05   0.386030E+00   0.483449E+01
   0.206000E+04  -0.118149E-03  -0.147954E-05   0.386025E+00   0.483449E+01
   0.207000E+04  -0.118271E-03  -0.156190E-05   0.386025E+00   0.483449E+01
   0.208000E+04  -0.118370E-03  -0.164333E-05   0.386031E+00   0.483449E+01
   0.209000E+04  -0.118445E-03  -0.172406E-05   0.386036E+00   0.483449E+01
   0.210000E+04  -0.118494E-03  -0.180441E-05   0.386044E+00   0.483449E+01
   0.211000E+04  -0.118519E-03  -0.188458E-05   0.386047E+00   0.483449E+01
   0.212000E+04  -0.118520E-03  -0.196464E-05   0.386046E+00   0.483449E+01
   0.213000E+04  -0.118501E-03  -0.204441E-05   0.386039E+00   0.483449E+01
   0.214000E+04  -0.118463E-03  -0.212343E-05   0.386031E+00   0.483449E+01
   0.215000E+04  -0.118405E-03  -0.220126E-05   0.386035E+00   0.483449E+01
   0.216000E+04  -0.118325E-03  -0.227788E-05   0.386044E+00   0.483449E+01
   0.217000E+04  -0.118222E-03  -0.235358E-05   0.386054E+00   0.483449E+01
   0.218000E+04  -0.118096E-03  -0.242872E-05   0.386055E+00   0.483449E+01
   0.219000E+04  -0.117947E-03  -0.250353E-05   0.386051E+00   0.483449E+01
   0.220000E+04  -0.117779E-03  -0.257799E-05   0.386048E+00   0.483449E+01
   0.221000E+04  -0.117593E-03  -0.265173E-05   0.386045E+00   0.483449E+01
   0.222000E+04  -0.117390E-03  -0.272420E-05   0.386046E+00   0.483449E+01
   0.223000E+04  -0.117169E-03  -0.279513E-05   0.386047E+00   0.483449E+01
   0.224000E+04  -0.116928E-03  -0.286461E-05   0.386053E+00   0.483449E+01
   0.225000E+04  -0.116666E-03  -0.293293E-05   0.386061E+00   0.483449E+01
   0.226000E+04  -0.116383E-03  -0.300047E-05   0.386062E+00   0.483449E+01
   0.227000E+04  -0.116081E-03  -0.306746E-05   0.386061E+00   0.483449E+01
   0.228000E+04  -0.115762E-03  -0.313384E-05   0.386053E+00   0.483449E+01
   0.229000E+04  -0.115428E-03  -0.319919E-05   0.386050E+00   0.483449E+01
   0.230000E+04  -0.115080E-03  -0.326291E-05   0.386054E+00   0.483449E+01
   0.231000E+04  -0.114717E-03  -0.332474E-05   0.386059E+00   0.483449E+01
   0.232000E+04  -0.114336E-03  -0.338478E-05   0.386065E+00   0.483449E+01
   0.233000E+04  -0.113937E-03  -0.344342E-05   0.386065E+00   0.483449E+01
   0.234000E+04  -0.113521E-03  -0.350105E-05   0.386066E+00   0.483449E+01
   0.235000E+04  -0.113089E-03  -0.355792E-05   0.386066E+00   0.483449E+01
   0.236000E+04  -0.112642E-03  -0.361397E-05   0.386063E+00   0.483449E+01
   0.237000E+04  -0.112184E-03  -0.366878E-05   0.386060E+00   0.483449E+01
   0.238000E+04  -0.111714E-03  -0.372182E-05   0.386059E+00   0.483449E+01
   0.239000E+04  -0.111232E-03  -0.377275E-05   0.386065E+00   0.483449E+01
   0.240000E+04  -0.110738E-03  -0.382162E-05   0.386073E+00   0.483449E+01
   0.241000E+04  -0.110229E-03  -0.386881E-05   0.386076E+00   0.483449E+01
   0.242000E+04  -0.109707E-03  -0.391483E-05   0.386073E+00   0.483449E+01
   0.243000E+04  -0.109171E-03  -0.396002E-05   0.386068E+00   0.483449E+01
   0.244000E+04  -0.108624E-03  -0.400436E-05   0.386067E+00   0.483449E+01
   0.245000E+04  -0.108068E-03  -0.404746E-05   0.386068E+00   0.483449E+01
   0.246000E+04  -0.107505E-03  -0.408875E-05   0.386072E+00   0.483449E+01
   0.247000E+04  -0.106935E-03  -0.412792E-05   0.386073E+00   0.483449E+01
   0.248000E+04  -0.106355E-03  -0.416500E-05   0.386075E+00   0.483449E+01
   0.249000E+04  -0.105766E-03  -0.420032E-05   0.386078E+00   0.483449E+01
   0.250000E+04  -0.105166E-03  -0.423437E-05   0.386079E+00   0.483449E+01
   0.251000E+04  -0.104556E-03  -0.426755E-05   0.386079E+00   0.483449E+01
   0.252000E+04  -0.103938E-03  -0.429997E-05   0.386073E+00   0.483449E+01
   0.253000E+04  -0.103315E-03  -0.433129E-05   0.386073E+00   0.483449E+01
   0.254000E+04  -0.102687E-03  -0.436098E-05   0.386076E+00   0.483449E+01
   0.255000E+04  -0.102056E-03  -0.438867E-05   0.386079E+00   0.483449E+01
   0.256000E+04  -0.101420E-03  -0.441431E-05   0.386083E+00   0.483449E+01
   0.257000E+04  -0.100776E-03  -0.443825E-05   0.386081E+00   0.483449E+01
   0.258000E+04  -0.100125E-03  -0.446093E-05   0.386084E+00   0.483449E+01
   0.259000E+04  -0.994678E-04  -0.448275E-05   0.386086E+00   0.483449E+01
   0.260000E+04  -0.988051E-04  -0.450384E-05   0.386084E+00   0.483449E+01
   0.261000E+04  -0.981391E-04  -0.452398E-05   0.386080E+00   0.483449E+01
   0.262000E+04  -0.974713E-04  -0.454273E-05   0.386077E+00   0.483449E+01
   0.263000E+04  -0.968022E-04  -0.455970E-05   0.386081E+00   0.483449E+01
   0.264000E+04  -0.961308E-04  -0.457479E-05   0.386089E+00   0.483449E+01
   0.265000E+04  -0.954554E-04  -0.458825E-05   0.386093E+00   0.483449E+01
   0.266000E+04  -0.947753E-04  -0.460051E-05   0.386093E+00   0.483449E+01
   0.267000E+04  -0.940907E-04  -0.461197E-05   0.386088E+00   0.483449E+01
   0.268000E+04  -0.934033E-04  -0.462272E-05   0.386084E+00   0.483449E+01
   0.269000E+04  -0.927148E-04  -0.463255E-05   0.386085E+00   0.483449E+01
   0.270000E+04  -0.920261E-04  -0.464110E-05   0.386087E+00   0.483449E+01
   0.271000E+04  -0.913370E-04  -0.464812E-05   0.386089E+00   0.483449E+01
   0.272000E+04  -0.906468E-04  -0.465363E-05   0.386091E+00   0.483449E+01
   0.273000E+04  -0.899549E-04  -0.465781E-05   0.386095E+00   0.483449E+01
   0.274000E+04  -0.892610E-04  -0.466098E-05   0.386099E+00   0.483449E+01
   0.275000E+04  -0.885659E-04  -0.466335E-05   0.386096E+00   0.483449E+01
   0.276000E+04  -0.878704E-04  -0.466489E-05   0.386088E+00   0.483449E+01
   0.277000E+04  -0.871755E-04  -0.466536E-05   0.386084E+00   0.483449E+01
   0.278000E+04  -0.864816E-04  -0.466447E-05   0.386089E+00   0.483449E+01
   0.279000E+04  -0.857879E-04  -0.466215E-05   0.386096E+00   0.483449E+01
   0.280000E+04  -0.850936E-04  -0.465861E-05   0.386103E+00   0.483449E+01
   0.281000E+04  -0.843983E-04  -0.465423E-05   0.386102E+00   0.483449E+01
   0.282000E+04  -0.837030E-04  -0.464933E-05   0.386098E+00   0.483449E+01
   0.283000E+04  -0.830096E-04  -0.464388E-05   0.386095E+00   0.483449E+01
   0.284000E+04  -0.823200E-04  -0.463755E-05   0.386091E+00   0.483449E+01
   0.285000E+04  -0.816351E-04  -0.462985E-05   0.386093E+00   0.483449E+01
   0.286000E+04  -0.809543E-04  -0.462048E-05   0.386095E+00   0.483449E+01
   0.287000E+04  -0.802759E-04  -0.460945E-05   0.386101E+00   0.483449E+01
   0.288000E+04  -0.795986E-04  -0.459717E-05   0.386107E+00   0.483449E+01
   0.289000E+04  -0.789217E-04  -0.458420E-05   0.386109E+00   0.483449E+01
   0.290000E+04  -0.782459E-04  -0.457102E-05   0.386105E+00   0.483449E+01
   0.291000E+04  -0.775728E-04  -0.455779E-05   0.386096E+00   0.483449E+01
   0.292000E+04  -0.769049E-04  -0.454422E-05   0.386094E+00   0.483449E+01
   0.293000E+04  -0.762437E-04  -0.452980E-05   0.386098E+00   0.483449E+01
   0.294000E+04  -0.755893E-04  -0.451414E-05   0.386105E+00   0.483449E+01
   0.295000E+04  -0.749400E-04  -0.449711E-05   0.386112E+00   0.483449E+01
   0.296000E+04  -0.742935E-04  -0.447895E-05   0.386111E+00   0.483449E+01
   0.297000E+04  -0.736485E-04  -0.446009E-05   0.386111E+00   0.483449E+01
   0.298000E+04  -0.730038E-04  -0.444101E-05   0.386108E+00   0.483449E+01
   0.299000E+04  -0.723593E-04  -0.442198E-05   0.386103E+00   0.483449E+01
   0.300000E+04  -0.717152E-04  -0.440304E-05   0.386101E+00   0.483449E+01
   0.301000E+04  -0.710719E-04  -0.438411E-05   0.386103E+00   0.483449E+01
   0.302000E+04  -0.704303E-04  -0.436510E-05   0.386113E+00   0.483449E+01
   0.303000E+04  -0.697908E-04  -0.434600E-05   0.386120E+00   0.483449E+01
   0.304000E+04  -0.691547E-04  -0.432679E-05   0.386122E+00   0.483449E+01
   0.305000E+04  -0.685232E-04  -0.430725E-05   0.386113E+00   0.483449E+01
   0.306000E+04  -0.678968E-04  -0.428687E-05   0.386102E+00   0.483449E+01
   0.307000E+04  -0.672744E-04  -0.426508E-05   0.386100E+00   0.483449E+01
   0.308000E+04  -0.666535E-04  -0.424181E-05   0.386108E+00   0.483449E+01
   0.309000E+04  -0.660325E-04  -0.421755E-05   0.386118E+00   0.483449E+01
   0.310000E+04  -0.654114E-04  -0.419313E-05   0.386122E+00   0.483449E+01
   0.311000E+04  -0.647922E-04  -0.416937E-05   0.386120E+00   0.483449E+01
   0.312000E+04  -0.641787E-04  -0.414668E-05   0.386116E+00   0.483449E+01
   0.313000E+04  -0.635750E-04  -0.412481E-05   0.386111E+00   0.483449E+01
   0.314000E+04  -0.629841E-04  -0.410292E-05   0.386107E+00   0.483449E+01
   0.315000E+04  -0.624056E-04  -0.408010E-05   0.386106E+00   0.483449E+01
   0.316000E+04  -0.618358E-04  -0.405587E-05   0.386109E+00   0.483449E+01
   0.317000E+04  -0.612702E-04  -0.403049E-05   0.386119E+00   0.483449E+01
   0.318000E+04  -0.607058E-04  -0.400480E-05   0.386126E+00   0.483449E+01
   0.319000E+04  -0.601413E-04  -0.397978E-05   0.386128E+00   0.483449E+01
   0.320000E+04  -0.595773E-04  -0.395624E-05   0.386120E+00   0.483449E+01
   0.321000E+04  -0.590152E-04  -0.393439E-05   0.386109E+00   0.483449E+01
   0.322000E+04  -0.584573E-04  -0.391377E-05   0.386105E+00   0.483449E+01
   0.323000E+04  -0.579035E-04  -0.389354E-05   0.386110E+00   0.483449E+01
   0.324000E+04  -0.573514E-04  -0.387303E-05   0.386119E+00   0.483449E+01
   0.325000E+04  -0.567968E-04  -0.385210E-05   0.386125E+00   0.483449E+01
   0.326000E+04  -0.562361E-04  -0.383123E-05   0.386125E+00   0.483449E+01
   0.327000E+04  -0.556682E-04  -0.381113E-05   0.386125E+00   0.483449E+01
   0.328000E+04  -0.550932E-04  -0.379246E-05   0.386122E+00   0.483449E+01
   0.329000E+04  -0.545127E-04  -0.377551E-05   0.386117E+00   0.483449E+01
   0.330000E+04  -0.539291E-04  -0.376004E-05   0.386111E+00   0.483449E+01
   0.331000E+04  -0.533444E-04  -0.374532E-05   0.386111E+00   0.483449E+01
   0.332000E+04  -0.527589E-04  -0.373053E-05   0.386119E+00   0.483449E+01
   0.333000E+04  -0.521706E-04  -0.371517E-05   0.386128E+00   0.483449E+01
   0.334000E+04  -0.515768E-04  -0.369924E-05   0.386132E+00   0.483449E+01
   0.335000E+04  -0.509756E-04  -0.368325E-05   0.386127E+00   0.483449E+01
   0.336000E+04  -0.503668E-04  -0.366781E-05   0.386121E+00   0.483449E+01
   0.337000E+04  -0.497515E-04  -0.365334E-05   0.386118E+00   0.483449E+01
   0.338000E+04  -0.491321E-04  -0.363985E-05   0.386117E+00   0.483449E+01
   0.339000E+04  -0.485109E-04  -0.362689E-05   0.386121E+00   0.483449E+01
   0.340000E+04  -0.478897E-04  -0.361386E-05   0.386123E+00   0.483449E+01
   0.341000E+04  -0.472685E-04  -0.360021E-05   0.386127E+00   0.483449E+01
   0.342000E+04  -0.466464E-04  -0.358563E-05   0.386131E+00   0.483449E+01
   0.343000E+04  -0.460215E-04  -0.357021E-05   0.386130E+00   0.483449E+01
   0.344000E+04  -0.453926E-04  -0.355426E-05   0.386128E+00   0.483449E+01
   0.345000E+04  -0.447589E-04  -0.353819E-05   0.386120E+00   0.483449E+01
   0.346000E+04  -0.441209E-04  -0.352215E-05   0.386118E+00   0.483449E+01
   0.347000E+04  -0.434797E-04  -0.350610E-05   0.386123E+00   0.483449E+01
   0.348000E+04  -0.428361E-04  -0.348995E-05   0.386129E+00   0.483449E+01
   0.349000E+04  -0.421913E-04  -0.347369E-05   0.386135E+00   0.483449E+01
   0.350000E+04  -0.415464E-04  -0.345741E-05   0.386130E+00   0.483449E+01
   0.351000E+04  -0.409043E-04  -0.344098E-05   0.386128E+00   0.483449E+01
   0.352000E+04  -0.402680E-04  -0.342393E-05   0.386124E+00   0.483449E+01
   0.353000E+04  -0.396393E-04  -0.340536E-05   0.386122E+00   0.483449E+01
   0.354000E+04  -0.390173E-04  -0.338456E-05   0.386124E+00   0.483449E+01
   0.355000E+04  -0.383996E-04  -0.336150E-05   0.386126E+00   0.483449E+01
   0.356000E+04  -0.377851E-04  -0.333690E-05   0.386131E+00   0.483449E+01
   0.357000E+04  -0.371744E-04  -0.331179E-05   0.386133E+00   0.483449E+01
   0.358000E+04  -0.365696E-04  -0.328711E-05   0.386132E+00   0.483449E+01
   0.359000E+04  -0.359744E-04  -0.326329E-05   0.386129E+00   0.483449E+01
   0.360000E+04  -0.353927E-04  -0.324003E-05   0.386121E+00   0.483449E+01
   0.361000E+04  -0.348271E-04  -0.321637E-05   0.386122E+00   0.483449E+01
   0.362000E+04  -0.342762E-04  -0.319132E-05   0.386127E+00   0.483449E+01
   0.363000E+04  -0.337352E-04  -0.316454E-05   0.386131E+00   0.483449E+01
   0.364000E+04  -0.331995E-04  -0.313656E-05   0.386135E+00   0.483449E+01
   0.365000E+04  -0.326656E-04  -0.310841E-05   0.386130E+00   0.483449E+01
   0.366000E+04  -0.321330E-04  -0.308119E-05   0.386130E+00   0.483449E+01
   0.367000E+04  -0.316027E-04  -0.305556E-05   0.386130E+00   0.483449E+01
   0.368000E+04  -0.310767E-04  -0.303152E-05   0.386127E+00   0.483449E+01
   0.369000E+04  -0.305570E-04  -0.300838E-05   0.386127E+00   0.483449E+01
   0.370000E+04  -0.300427E-04  -0.298523E-05   0.386125E+00   0.483449E+01
   0.371000E+04  -0.295306E-04  -0.296142E-05   0.386128E+00   0.483449E+01
   0.372000E+04  -0.290166E-04  -0.293701E-05   0.386135E+00   0.483449E+01
   0.373000E+04  -0.284974E-04  -0.291272E-05   0.386136E+00   0.483449E+01
   0.374000E+04  -0.279722E-04  -0.288943E-05   0.386136E+00   0.483449E+01
   0.375000E+04  -0.274418E-04  -0.286782E-05   0.386131E+00   0.483449E+01
   0.376000E+04  -0.269093E-04  -0.284797E-05   0.386128E+00   0.483449E+01
   0.377000E+04  -0.263777E-04  -0.282926E-05   0.386128E+00   0.483449E+01
   0.378000E+04  -0.258483E-04  -0.281076E-05   0.386129E+00   0.483449E+01
   0.379000E+04  -0.253197E-04  -0.279162E-05   0.386131E+00   0.483449E+01
   0.380000E+04  -0.247888E-04  -0.277159E-05   0.386132E+00   0.483449E+01
   0.381000E+04  -0.242529E-04  -0.275105E-05   0.386135E+00   0.483449E+01
   0.382000E+04  -0.237110E-04  -0.273074E-05   0.386139E+00   0.483449E+01
   0.383000E+04  -0.231637E-04  -0.271138E-05   0.386139E+00   0.483449E+01
   0.384000E+04  -0.226137E-04  -0.269328E-05   0.386133E+00   0.483449E+01
   0.385000E+04  -0.220641E-04  -0.267613E-05   0.386125E+00   0.483449E+01
   0.386000E+04  -0.215175E-04  -0.265912E-05   0.386125E+00   0.483449E+01
   0.387000E+04  -0.209742E-04  -0.264137E-05   0.386131E+00   0.483449E+01
   0.388000E+04  -0.204322E-04  -0.262236E-05   0.386138E+00   0.483449E+01
   0.389000E+04  -0.198885E-04  -0.260222E-05   0.386141E+00   0.483449E+01
   0.390000E+04  -0.193413E-04  -0.258154E-05   0.386139E+00   0.483449E+01
   0.391000E+04  -0.187905E-04  -0.256104E-05   0.386138E+00   0.483449E+01
   0.392000E+04  -0.182377E-04  -0.254119E-05   0.386134E+00   0.483449E+01
   0.393000E+04  -0.176853E-04  -0.252202E-05   0.386130E+00   0.483449E+01