title="breakthrough data set at     5 wells"
variables="time(days)","cavg","cpk","upk","zswi"
zone i=     1295
   0.100000E+02   0.445095E-10   0.584959E-10   0.457620E+00   0.485655E+01
   0.200000E+02   0.919985E-10   0.116417E-09   0.362064E+00   0.483555E+01
   0.300000E+02   0.165727E-09   0.202658E-09   0.361772E+00   0.483555E+01
   0.400000E+02   0.275607E-09   0.333684E-09   0.361946E+00   0.483555E+01
   0.500000E+02   0.433635E-09   0.524500E-09   0.362129E+00   0.483555E+01
   0.600000E+02   0.654112E-09   0.789868E-09   0.362308E+00   0.483555E+01
   0.700000E+02   0.953515E-09   0.114887E-08   0.362492E+00   0.483555E+01
   0.800000E+02   0.135041E-08   0.162272E-08   0.362672E+00   0.483555E+01
   0.900000E+02   0.186484E-08   0.223380E-08   0.362848E+00   0.483555E+01
   0.100000E+03   0.251739E-08   0.300429E-08   0.363020E+00   0.483555E+01
   0.110000E+03   0.332755E-08   0.398095E-08   0.363189E+00   0.483555E+01
   0.120000E+03   0.431169E-08   0.529005E-08   0.363354E+00   0.483555E+01
   0.130000E+03   0.548058E-08   0.689163E-08   0.363514E+00   0.483555E+01
   0.140000E+03   0.683630E-08   0.880754E-08   0.363671E+00   0.483555E+01
   0.150000E+03   0.837422E-08   0.110534E-07   0.363664E+00   0.483555E+01
   0.160000E+03   0.100649E-07   0.136166E-07   0.363823E+00   0.483555E+01
   0.170000E+03   0.118627E-07   0.164641E-07   0.363975E+00   0.483555E+01
   0.180000E+03   0.136967E-07   0.195294E-07   0.364122E+00   0.483555E+01
   0.190000E+03   0.154665E-07   0.227025E-07   0.364265E+00   0.483555E+01
   0.200000E+03   0.170364E-07   0.258198E-07   0.364402E+00   0.483555E+01
   0.210000E+03   0.182294E-07   0.286525E-07   0.364535E+00   0.483555E+01
   0.220000E+03   0.188200E-07   0.308928E-07   0.364664E+00   0.483555E+01
   0.230000E+03   0.185247E-07   0.321351E-07   0.364789E+00   0.483555E+01
   0.240000E+03   0.169925E-07   0.318523E-07   0.364911E+00   0.483555E+01
   0.250000E+03   0.137952E-07   0.293680E-07   0.365029E+00   0.483555E+01
   0.260000E+03   0.842110E-08   0.238285E-07   0.365143E+00   0.483555E+01
   0.270000E+03   0.273342E-09   0.141819E-07   0.365253E+00   0.483555E+01
   0.280000E+03  -0.113259E-07   0.201845E-08   0.365360E+00   0.483555E+01
   0.290000E+03  -0.271252E-07  -0.492363E-09   0.365464E+00   0.483555E+01
   0.300000E+03  -0.479288E-07  -0.359391E-08   0.365565E+00   0.483555E+01
   0.310000E+03  -0.745803E-07  -0.731566E-08   0.365663E+00   0.483555E+01
   0.320000E+03  -0.107946E-06  -0.116762E-07   0.365758E+00   0.483555E+01
   0.330000E+03  -0.148900E-06  -0.166819E-07   0.365849E+00   0.483555E+01
   0.340000E+03  -0.198313E-06  -0.223254E-07   0.365939E+00   0.483555E+01
   0.350000E+03  -0.257034E-06  -0.285843E-07   0.366025E+00   0.483555E+01
   0.360000E+03  -0.325881E-06  -0.354211E-07   0.366108E+00   0.483555E+01
   0.370000E+03  -0.405621E-06  -0.427824E-07   0.366189E+00   0.483555E+01
   0.380000E+03  -0.496951E-06  -0.506005E-07   0.366267E+00   0.483555E+01
   0.390000E+03  -0.600477E-06  -0.587949E-07   0.366343E+00   0.483555E+01
   0.400000E+03  -0.716705E-06  -0.672753E-07   0.366416E+00   0.483555E+01
   0.410000E+03  -0.846031E-06  -0.759447E-07   0.366487E+00   0.483555E+01
   0.420000E+03  -0.988756E-06  -0.847045E-07   0.366555E+00   0.483555E+01
   0.430000E+03  -0.114509E-05  -0.934578E-07   0.366621E+00   0.483555E+01
   0.440000E+03  -0.131517E-05  -0.102113E-06   0.366685E+00   0.483555E+01
   0.450000E+03  -0.149904E-05  -0.110588E-06   0.366747E+00   0.483555E+01
   0.460000E+03  -0.169669E-05  -0.118809E-06   0.366807E+00   0.483555E+01
   0.470000E+03  -0.190800E-05  -0.126714E-06   0.366865E+00   0.483555E+01
   0.480000E+03  -0.213274E-05  -0.134255E-06   0.366921E+00   0.483555E+01
   0.490000E+03  -0.237058E-05  -0.141394E-06   0.366976E+00   0.483555E+01
   0.500000E+03  -0.262105E-05  -0.148107E-06   0.367028E+00   0.483555E+01
   0.510000E+03  -0.288358E-05  -0.154379E-06   0.367079E+00   0.483555E+01
   0.520000E+03  -0.315748E-05  -0.160203E-06   0.367128E+00   0.483555E+01
   0.530000E+03  -0.344195E-05  -0.165580E-06   0.367175E+00   0.483555E+01
   0.540000E+03  -0.373612E-05  -0.170513E-06   0.367221E+00   0.483555E+01
   0.550000E+03  -0.403903E-05  -0.175006E-06   0.367264E+00   0.483555E+01
   0.560000E+03  -0.434964E-05  -0.179062E-06   0.367306E+00   0.483555E+01
   0.570000E+03  -0.466684E-05  -0.182679E-06   0.367347E+00   0.483555E+01
   0.580000E+03  -0.498947E-05  -0.185848E-06   0.367385E+00   0.483555E+01
   0.590000E+03  -0.531631E-05  -0.188553E-06   0.367422E+00   0.483555E+01
   0.600000E+03  -0.564604E-05  -0.190771E-06   0.367458E+00   0.483555E+01
   0.610000E+03  -0.597731E-05  -0.192467E-06   0.367492E+00   0.483555E+01
   0.620000E+03  -0.630872E-05  -0.193597E-06   0.367525E+00   0.483555E+01
   0.630000E+03  -0.663878E-05  -0.194109E-06   0.367557E+00   0.483555E+01
   0.640000E+03  -0.696602E-05  -0.193940E-06   0.367588E+00   0.483555E+01
   0.650000E+03  -0.728893E-05  -0.193015E-06   0.367617E+00   0.483555E+01
   0.660000E+03  -0.760606E-05  -0.191254E-06   0.367646E+00   0.483555E+01
   0.670000E+03  -0.791601E-05  -0.188563E-06   0.367674E+00   0.483555E+01
   0.680000E+03  -0.821746E-05  -0.184842E-06   0.367701E+00   0.483555E+01
   0.690000E+03  -0.850919E-05  -0.179986E-06   0.367727E+00   0.483555E+01
   0.700000E+03  -0.879006E-05  -0.173885E-06   0.367752E+00   0.483555E+01
   0.710000E+03  -0.905904E-05  -0.166427E-06   0.367776E+00   0.483555E+01
   0.720000E+03  -0.931518E-05  -0.157503E-06   0.367800E+00   0.483555E+01
   0.730000E+03  -0.955765E-05  -0.147007E-06   0.367822E+00   0.483555E+01
   0.740000E+03  -0.978565E-05  -0.134833E-06   0.367843E+00   0.483555E+01
   0.750000E+03  -0.999852E-05  -0.120885E-06   0.367864E+00   0.483555E+01
   0.760000E+03  -0.101956E-04  -0.105066E-06   0.367884E+00   0.483555E+01
   0.770000E+03  -0.103765E-04  -0.872891E-07   0.367902E+00   0.483555E+01
   0.780000E+03  -0.105407E-04  -0.674694E-07   0.367920E+00   0.483555E+01
   0.790000E+03  -0.106877E-04  -0.455291E-07   0.367938E+00   0.483555E+01
   0.800000E+03  -0.108175E-04  -0.213966E-07   0.367954E+00   0.483555E+01
   0.810000E+03  -0.109296E-04   0.499370E-08   0.367970E+00   0.483555E+01
   0.820000E+03  -0.110241E-04   0.337003E-07   0.367985E+00   0.483555E+01
   0.830000E+03  -0.111007E-04   0.647750E-07   0.367999E+00   0.483555E+01
   0.840000E+03  -0.111596E-04   0.982623E-07   0.368013E+00   0.483555E+01
   0.850000E+03  -0.112007E-04   0.134200E-06   0.368026E+00   0.483555E+01
   0.860000E+03  -0.112241E-04   0.172619E-06   0.368039E+00   0.483555E+01
   0.870000E+03  -0.112300E-04   0.213543E-06   0.368051E+00   0.483555E+01
   0.880000E+03  -0.112185E-04   0.256991E-06   0.368062E+00   0.483555E+01
   0.890000E+03  -0.111898E-04   0.302974E-06   0.368074E+00   0.483555E+01
   0.900000E+03  -0.111440E-04   0.351501E-06   0.368085E+00   0.483555E+01
   0.910000E+03  -0.110814E-04   0.402574E-06   0.368095E+00   0.483555E+01
   0.920000E+03  -0.110022E-04   0.456194E-06   0.368105E+00   0.483555E+01
   0.930000E+03  -0.109065E-04   0.512358E-06   0.368115E+00   0.483555E+01
   0.940000E+03  -0.107945E-04   0.571062E-06   0.368125E+00   0.483555E+01
   0.950000E+03  -0.106665E-04   0.632298E-06   0.368135E+00   0.483555E+01
   0.960000E+03  -0.105225E-04   0.696057E-06   0.368144E+00   0.483555E+01
   0.970000E+03  -0.103628E-04   0.762331E-06   0.368153E+00   0.483555E+01
   0.980000E+03  -0.101876E-04   0.831107E-06   0.368161E+00   0.483555E+01
   0.990000E+03  -0.999706E-05   0.902371E-06   0.368170E+00   0.483555E+01
   0.100000E+04  -0.979153E-05   0.976108E-06   0.368178E+00   0.483555E+01
   0.101000E+04  -0.957123E-05   0.105230E-05   0.368185E+00   0.483555E+01
   0.102000E+04  -0.933644E-05   0.113092E-05   0.368193E+00   0.483555E+01
   0.103000E+04  -0.908746E-05   0.121196E-05   0.368200E+00   0.483555E+01
   0.104000E+04  -0.882462E-05   0.129538E-05   0.368207E+00   0.483555E+01
   0.105000E+04  -0.854822E-05   0.138116E-05   0.368214E+00   0.483555E+01
   0.106000E+04  -0.825863E-05   0.146928E-05   0.368220E+00   0.483555E+01
   0.107000E+04  -0.795617E-05   0.155970E-05   0.368226E+00   0.483555E+01
   0.108000E+04  -0.764118E-05   0.165239E-05   0.368232E+00   0.483555E+01
   0.109000E+04  -0.731402E-05   0.174732E-05   0.368237E+00   0.483555E+01
   0.110000E+04  -0.697503E-05   0.184447E-05   0.368242E+00   0.483555E+01
   0.111000E+04  -0.662452E-05   0.194380E-05   0.368247E+00   0.483555E+01
   0.112000E+04  -0.626282E-05   0.204527E-05   0.368252E+00   0.483555E+01
   0.113000E+04  -0.589025E-05   0.214887E-05   0.368257E+00   0.483555E+01
   0.114000E+04  -0.550711E-05   0.225455E-05   0.368261E+00   0.483555E+01
   0.115000E+04  -0.511370E-05   0.236230E-05   0.368265E+00   0.483555E+01
   0.116000E+04  -0.471032E-05   0.247207E-05   0.368269E+00   0.483555E+01
   0.117000E+04  -0.429727E-05   0.258383E-05   0.368273E+00   0.483555E+01
   0.118000E+04  -0.387485E-05   0.269757E-05   0.368276E+00   0.483555E+01
   0.119000E+04  -0.344340E-05   0.281324E-05   0.368280E+00   0.483555E+01
   0.120000E+04  -0.300326E-05   0.293081E-05   0.368283E+00   0.483555E+01
   0.121000E+04  -0.255480E-05   0.305027E-05   0.368286E+00   0.483555E+01
   0.122000E+04  -0.209844E-05   0.317157E-05   0.368289E+00   0.483555E+01
   0.123000E+04  -0.163462E-05   0.329470E-05   0.368291E+00   0.483555E+01
   0.124000E+04  -0.116383E-05   0.341961E-05   0.368294E+00   0.483555E+01
   0.125000E+04  -0.686599E-06   0.354629E-05   0.368297E+00   0.483555E+01
   0.126000E+04  -0.203488E-06   0.367471E-05   0.368299E+00   0.483555E+01
   0.127000E+04   0.284916E-06   0.380485E-05   0.368302E+00   0.483555E+01
   0.128000E+04   0.778003E-06   0.393667E-05   0.368304E+00   0.483555E+01
   0.129000E+04   0.127515E-05   0.407017E-05   0.368306E+00   0.483555E+01
   0.130000E+04   0.177575E-05   0.420533E-05   0.368308E+00   0.483555E+01
   0.131000E+04   0.227917E-05   0.434212E-05   0.368310E+00   0.483555E+01
   0.132000E+04   0.278485E-05   0.483643E-05   0.368312E+00   0.483555E+01
   0.133000E+04   0.329222E-05   0.594148E-05   0.368314E+00   0.483555E+01
   0.134000E+04   0.380075E-05   0.703507E-05   0.368316E+00   0.483555E+01
   0.135000E+04   0.430997E-05   0.811582E-05   0.368318E+00   0.483555E+01
   0.136000E+04   0.481945E-05   0.918260E-05   0.368320E+00   0.483555E+01
   0.137000E+04   0.532879E-05   0.102345E-04   0.368322E+00   0.483555E+01
   0.138000E+04   0.583768E-05   0.112708E-04   0.368323E+00   0.483555E+01
   0.139000E+04   0.634581E-05   0.122909E-04   0.368325E+00   0.483555E+01
   0.140000E+04   0.685295E-05   0.132947E-04   0.368327E+00   0.483555E+01
   0.141000E+04   0.735889E-05   0.142820E-04   0.368328E+00   0.483555E+01
   0.142000E+04   0.786347E-05   0.152528E-04   0.368329E+00   0.483555E+01
   0.143000E+04   0.836656E-05   0.162074E-04   0.368331E+00   0.483555E+01
   0.144000E+04   0.886807E-05   0.171460E-04   0.368332E+00   0.483555E+01
   0.145000E+04   0.936791E-05   0.180692E-04   0.368333E+00   0.483555E+01
   0.146000E+04   0.986601E-05   0.189773E-04   0.368334E+00   0.483555E+01
   0.147000E+04   0.103623E-04   0.198710E-04   0.368336E+00   0.483555E+01
   0.148000E+04   0.108568E-04   0.207508E-04   0.368337E+00   0.483555E+01
   0.149000E+04   0.113494E-04   0.216172E-04   0.368338E+00   0.483555E+01
   0.150000E+04   0.118400E-04   0.224706E-04   0.368339E+00   0.483555E+01
   0.151000E+04   0.123286E-04   0.233116E-04   0.368340E+00   0.483555E+01
   0.152000E+04   0.128150E-04   0.241405E-04   0.368340E+00   0.483555E+01
   0.153000E+04   0.132992E-04   0.249574E-04   0.368341E+00   0.483555E+01
   0.154000E+04   0.137809E-04   0.257625E-04   0.368342E+00   0.483555E+01
   0.155000E+04   0.142600E-04   0.265555E-04   0.368343E+00   0.483555E+01
   0.156000E+04   0.147362E-04   0.273363E-04   0.368343E+00   0.483555E+01
   0.157000E+04   0.152093E-04   0.281045E-04   0.368344E+00   0.483555E+01
   0.158000E+04   0.156790E-04   0.288592E-04   0.368344E+00   0.483555E+01
   0.159000E+04   0.161448E-04   0.295998E-04   0.368345E+00   0.483555E+01
   0.160000E+04   0.166065E-04   0.303252E-04   0.368345E+00   0.483555E+01
   0.161000E+04   0.170635E-04   0.310340E-04   0.368346E+00   0.483555E+01
   0.162000E+04   0.175155E-04   0.317251E-04   0.368346E+00   0.483555E+01
   0.163000E+04   0.179618E-04   0.323966E-04   0.368347E+00   0.483555E+01
   0.164000E+04   0.184020E-04   0.330470E-04   0.368347E+00   0.483555E+01
   0.165000E+04   0.188355E-04   0.336743E-04   0.368347E+00   0.483555E+01
   0.166000E+04   0.192617E-04   0.342765E-04   0.368347E+00   0.483555E+01
   0.167000E+04   0.196800E-04   0.348515E-04   0.368347E+00   0.483555E+01
   0.168000E+04   0.200897E-04   0.353971E-04   0.368348E+00   0.483555E+01
   0.169000E+04   0.204901E-04   0.359112E-04   0.368348E+00   0.483555E+01
   0.170000E+04   0.208807E-04   0.363915E-04   0.368348E+00   0.483555E+01
   0.171000E+04   0.212608E-04   0.368359E-04   0.368348E+00   0.483555E+01
   0.172000E+04   0.216298E-04   0.372426E-04   0.368348E+00   0.483555E+01
   0.173000E+04   0.219871E-04   0.376096E-04   0.368347E+00   0.483555E+01
   0.174000E+04   0.223323E-04   0.379355E-04   0.368347E+00   0.483555E+01
   0.175000E+04   0.226648E-04   0.382191E-04   0.368347E+00   0.483555E+01
   0.176000E+04   0.229845E-04   0.384596E-04   0.368347E+00   0.483555E+01
   0.177000E+04   0.232910E-04   0.386564E-04   0.368347E+00   0.483555E+01
   0.178000E+04   0.235841E-04   0.388096E-04   0.368347E+00   0.483555E+01
   0.179000E+04   0.238638E-04   0.389193E-04   0.368346E+00   0.483555E+01
   0.180000E+04   0.241303E-04   0.389863E-04   0.368346E+00   0.483555E+01
   0.181000E+04   0.243835E-04   0.390117E-04   0.368346E+00   0.483555E+01
   0.182000E+04   0.246237E-04   0.389966E-04   0.368345E+00   0.483555E+01
   0.183000E+04   0.248512E-04   0.389427E-04   0.368345E+00   0.483555E+01
   0.184000E+04   0.250664E-04   0.388519E-04   0.368345E+00   0.483555E+01
   0.185000E+04   0.252698E-04   0.387261E-04   0.368344E+00   0.483555E+01
   0.186000E+04   0.254617E-04   0.385674E-04   0.368344E+00   0.483555E+01
   0.187000E+04   0.256428E-04   0.383781E-04   0.368344E+00   0.483555E+01
   0.188000E+04   0.258135E-04   0.381604E-04   0.368343E+00   0.483555E+01
   0.189000E+04   0.259745E-04   0.379167E-04   0.368343E+00   0.483555E+01
   0.190000E+04   0.261262E-04   0.376493E-04   0.368342E+00   0.483555E+01
   0.191000E+04   0.262694E-04   0.373604E-04   0.368342E+00   0.483555E+01
   0.192000E+04   0.264045E-04   0.370523E-04   0.368341E+00   0.483555E+01
   0.193000E+04   0.265322E-04   0.367271E-04   0.368341E+00   0.483555E+01
   0.194000E+04   0.266530E-04   0.363869E-04   0.368341E+00   0.483555E+01
   0.195000E+04   0.267675E-04   0.360336E-04   0.368340E+00   0.483555E+01
   0.196000E+04   0.268762E-04   0.356692E-04   0.368340E+00   0.483555E+01
   0.197000E+04   0.269796E-04   0.352954E-04   0.368339E+00   0.483555E+01
   0.198000E+04   0.270782E-04   0.349137E-04   0.368339E+00   0.483555E+01
   0.199000E+04   0.271723E-04   0.345256E-04   0.368338E+00   0.483555E+01
   0.200000E+04   0.272625E-04   0.341324E-04   0.368337E+00   0.483555E+01
   0.201000E+04   0.273491E-04   0.337353E-04   0.368337E+00   0.483555E+01
   0.202000E+04   0.274324E-04   0.333353E-04   0.368336E+00   0.483555E+01
   0.203000E+04   0.275127E-04   0.330110E-04   0.368336E+00   0.483555E+01
   0.204000E+04   0.275903E-04   0.331159E-04   0.368335E+00   0.483555E+01
   0.205000E+04   0.276652E-04   0.332136E-04   0.368335E+00   0.483555E+01
   0.206000E+04   0.277378E-04   0.333047E-04   0.368334E+00   0.483555E+01
   0.207000E+04   0.278080E-04   0.333893E-04   0.368334E+00   0.483555E+01
   0.208000E+04   0.278759E-04   0.334678E-04   0.368333E+00   0.483555E+01
   0.209000E+04   0.279416E-04   0.335404E-04   0.368332E+00   0.483555E+01
   0.210000E+04   0.280050E-04   0.336074E-04   0.368332E+00   0.483555E+01
   0.211000E+04   0.280661E-04   0.336691E-04   0.368331E+00   0.483555E+01
   0.212000E+04   0.281248E-04   0.337255E-04   0.368331E+00   0.483555E+01
   0.213000E+04   0.281810E-04   0.337770E-04   0.368330E+00   0.483555E+01
   0.214000E+04   0.282345E-04   0.338238E-04   0.368329E+00   0.483555E+01
   0.215000E+04   0.282852E-04   0.338659E-04   0.368329E+00   0.483555E+01
   0.216000E+04   0.283330E-04   0.339036E-04   0.368328E+00   0.483555E+01
   0.217000E+04   0.283778E-04   0.339371E-04   0.368328E+00   0.483555E+01
   0.218000E+04   0.284193E-04   0.339666E-04   0.368327E+00   0.483555E+01
   0.219000E+04   0.284574E-04   0.339924E-04   0.368326E+00   0.483555E+01
   0.220000E+04   0.284921E-04   0.340145E-04   0.368326E+00   0.483555E+01
   0.221000E+04   0.285230E-04   0.341871E-04   0.368325E+00   0.483555E+01
   0.222000E+04   0.285501E-04   0.344004E-04   0.368324E+00   0.483555E+01
   0.223000E+04   0.285734E-04   0.346113E-04   0.368323E+00   0.483555E+01
   0.224000E+04   0.285925E-04   0.348199E-04   0.368323E+00   0.483555E+01
   0.225000E+04   0.286076E-04   0.350262E-04   0.368322E+00   0.483555E+01
   0.226000E+04   0.286184E-04   0.352302E-04   0.368321E+00   0.483555E+01
   0.227000E+04   0.286251E-04   0.354320E-04   0.368320E+00   0.483555E+01
   0.228000E+04   0.286275E-04   0.356315E-04   0.368319E+00   0.483555E+01
   0.229000E+04   0.286259E-04   0.358288E-04   0.368319E+00   0.483555E+01
   0.230000E+04   0.286201E-04   0.360238E-04   0.368318E+00   0.483555E+01
   0.231000E+04   0.286104E-04   0.362167E-04   0.368317E+00   0.483555E+01
   0.232000E+04   0.285970E-04   0.364075E-04   0.368316E+00   0.483555E+01
   0.233000E+04   0.285800E-04   0.365962E-04   0.368315E+00   0.483555E+01
   0.234000E+04   0.285595E-04   0.367828E-04   0.368314E+00   0.483555E+01
   0.235000E+04   0.285360E-04   0.369675E-04   0.368313E+00   0.483555E+01
   0.236000E+04   0.285095E-04   0.371504E-04   0.368312E+00   0.483555E+01
   0.237000E+04   0.284804E-04   0.373314E-04   0.368311E+00   0.483555E+01
   0.238000E+04   0.284489E-04   0.375107E-04   0.368310E+00   0.483555E+01
   0.239000E+04   0.284151E-04   0.376885E-04   0.368310E+00   0.483555E+01
   0.240000E+04   0.283794E-04   0.378647E-04   0.368309E+00   0.483555E+01
   0.241000E+04   0.283418E-04   0.380394E-04   0.368308E+00   0.483555E+01
   0.242000E+04   0.283025E-04   0.382127E-04   0.368307E+00   0.483555E+01
   0.243000E+04   0.282617E-04   0.383847E-04   0.368306E+00   0.483555E+01
   0.244000E+04   0.282195E-04   0.385553E-04   0.368305E+00   0.483555E+01
   0.245000E+04   0.281760E-04   0.387247E-04   0.368304E+00   0.483555E+01
   0.246000E+04   0.281314E-04   0.388928E-04   0.368303E+00   0.483555E+01
   0.247000E+04   0.280859E-04   0.390596E-04   0.368302E+00   0.483555E+01
   0.248000E+04   0.280395E-04   0.392251E-04   0.368301E+00   0.483555E+01
   0.249000E+04   0.279926E-04   0.393894E-04   0.368300E+00   0.483555E+01
   0.250000E+04   0.279452E-04   0.395526E-04   0.368298E+00   0.483555E+01
   0.251000E+04   0.278978E-04   0.397145E-04   0.368297E+00   0.483555E+01
   0.252000E+04   0.278504E-04   0.398754E-04   0.368296E+00   0.483555E+01
   0.253000E+04   0.278034E-04   0.400352E-04   0.368295E+00   0.483555E+01
   0.254000E+04   0.277570E-04   0.401940E-04   0.368294E+00   0.483555E+01
   0.255000E+04   0.277116E-04   0.403519E-04   0.368293E+00   0.483555E+01
   0.256000E+04   0.276673E-04   0.405090E-04   0.368292E+00   0.483555E+01
   0.257000E+04   0.276244E-04   0.406653E-04   0.368291E+00   0.483555E+01
   0.258000E+04   0.275832E-04   0.408210E-04   0.368290E+00   0.483555E+01
   0.259000E+04   0.275439E-04   0.409762E-04   0.368289E+00   0.483555E+01
   0.260000E+04   0.275068E-04   0.411310E-04   0.368288E+00   0.483555E+01
   0.261000E+04   0.274720E-04   0.412854E-04   0.368287E+00   0.483555E+01
   0.262000E+04   0.274398E-04   0.414396E-04   0.368285E+00   0.483555E+01
   0.263000E+04   0.274103E-04   0.415937E-04   0.368284E+00   0.483555E+01
   0.264000E+04   0.273837E-04   0.417478E-04   0.368283E+00   0.483555E+01
   0.265000E+04   0.273602E-04   0.419018E-04   0.368282E+00   0.483555E+01
   0.266000E+04   0.273400E-04   0.420561E-04   0.368281E+00   0.483555E+01
   0.267000E+04   0.273231E-04   0.422106E-04   0.368280E+00   0.483555E+01
   0.268000E+04   0.273097E-04   0.423654E-04   0.368279E+00   0.483555E+01
   0.269000E+04   0.272998E-04   0.425206E-04   0.368278E+00   0.483555E+01
   0.270000E+04   0.272937E-04   0.426763E-04   0.368276E+00   0.483555E+01
   0.271000E+04   0.272913E-04   0.428325E-04   0.368275E+00   0.483555E+01
   0.272000E+04   0.272929E-04   0.429894E-04   0.368274E+00   0.483555E+01
   0.273000E+04   0.272984E-04   0.431470E-04   0.368273E+00   0.483555E+01
   0.274000E+04   0.273080E-04   0.433053E-04   0.368272E+00   0.483555E+01
   0.275000E+04   0.273215E-04   0.434643E-04   0.368271E+00   0.483555E+01
   0.276000E+04   0.273392E-04   0.436242E-04   0.368269E+00   0.483555E+01
   0.277000E+04   0.273611E-04   0.437851E-04   0.368268E+00   0.483555E+01
   0.278000E+04   0.273873E-04   0.439469E-04   0.368267E+00   0.483555E+01
   0.279000E+04   0.274177E-04   0.441096E-04   0.368266E+00   0.483555E+01
   0.280000E+04   0.274522E-04   0.442731E-04   0.368265E+00   0.483555E+01
   0.281000E+04   0.274908E-04   0.444376E-04   0.368264E+00   0.483555E+01
   0.282000E+04   0.275339E-04   0.446033E-04   0.368262E+00   0.483555E+01
   0.283000E+04   0.275812E-04   0.447700E-04   0.368262E+00   0.483555E+01
   0.284000E+04   0.276326E-04   0.449374E-04   0.368261E+00   0.483555E+01
   0.285000E+04   0.276879E-04   0.451055E-04   0.368260E+00   0.483555E+01
   0.286000E+04   0.277470E-04   0.452745E-04   0.368259E+00   0.483555E+01
   0.287000E+04   0.278103E-04   0.454446E-04   0.368257E+00   0.483555E+01
   0.288000E+04   0.278779E-04   0.456155E-04   0.368256E+00   0.483555E+01
   0.289000E+04   0.279491E-04   0.457869E-04   0.368257E+00   0.483555E+01
   0.290000E+04   0.280239E-04   0.459588E-04   0.368256E+00   0.483555E+01
   0.291000E+04   0.281023E-04   0.461315E-04   0.368254E+00   0.483555E+01
   0.292000E+04   0.281850E-04   0.463053E-04   0.368252E+00   0.483555E+01
   0.293000E+04   0.282721E-04   0.464801E-04   0.368251E+00   0.483555E+01
   0.294000E+04   0.283634E-04   0.466557E-04   0.368251E+00   0.483555E+01
   0.295000E+04   0.284585E-04   0.468319E-04   0.368250E+00   0.483555E+01
   0.296000E+04   0.285577E-04   0.470090E-04   0.368249E+00   0.483555E+01
   0.297000E+04   0.286618E-04   0.471877E-04   0.368247E+00   0.483555E+01
   0.298000E+04   0.287712E-04   0.473681E-04   0.368246E+00   0.483555E+01
   0.299000E+04   0.288861E-04   0.475499E-04   0.368245E+00   0.483555E+01
   0.300000E+04   0.290060E-04   0.477329E-04   0.368245E+00   0.483555E+01
   0.301000E+04   0.291309E-04   0.479173E-04   0.368244E+00   0.483555E+01
   0.302000E+04   0.292615E-04   0.481038E-04   0.368242E+00   0.483555E+01
   0.303000E+04   0.293986E-04   0.482928E-04   0.368241E+00   0.483555E+01
   0.304000E+04   0.295426E-04   0.484842E-04   0.368239E+00   0.483555E+01
   0.305000E+04   0.296929E-04   0.486776E-04   0.368239E+00   0.483555E+01
   0.306000E+04   0.298493E-04   0.488729E-04   0.368238E+00   0.483555E+01
   0.307000E+04   0.300120E-04   0.490707E-04   0.368237E+00   0.483555E+01
   0.308000E+04   0.301818E-04   0.492715E-04   0.368236E+00   0.483555E+01
   0.309000E+04   0.303594E-04   0.494754E-04   0.368234E+00   0.483555E+01
   0.310000E+04   0.305443E-04   0.496821E-04   0.368233E+00   0.483555E+01
   0.311000E+04   0.307361E-04   0.498912E-04   0.368233E+00   0.483555E+01
   0.312000E+04   0.309347E-04   0.501030E-04   0.368231E+00   0.483555E+01
   0.313000E+04   0.311406E-04   0.503180E-04   0.368230E+00   0.483555E+01
   0.314000E+04   0.313546E-04   0.505367E-04   0.368228E+00   0.483555E+01
   0.315000E+04   0.315768E-04   0.507587E-04   0.368227E+00   0.483555E+01
   0.316000E+04   0.318066E-04   0.509836E-04   0.368227E+00   0.483555E+01
   0.317000E+04   0.320438E-04   0.512115E-04   0.368226E+00   0.483555E+01
   0.318000E+04   0.322888E-04   0.514428E-04   0.368224E+00   0.483555E+01
   0.319000E+04   0.325422E-04   0.516779E-04   0.368223E+00   0.483555E+01
   0.320000E+04   0.328045E-04   0.519171E-04   0.368221E+00   0.483555E+01
   0.321000E+04   0.330753E-04   0.521597E-04   0.368221E+00   0.483555E+01
   0.322000E+04   0.333541E-04   0.524055E-04   0.368220E+00   0.483555E+01
   0.323000E+04   0.336410E-04   0.526549E-04   0.368219E+00   0.483555E+01
   0.324000E+04   0.339366E-04   0.529083E-04   0.368217E+00   0.483555E+01
   0.325000E+04   0.342413E-04   0.531660E-04   0.368216E+00   0.483555E+01
   0.326000E+04   0.345550E-04   0.534277E-04   0.368215E+00   0.483555E+01
   0.327000E+04   0.348770E-04   0.536928E-04   0.368215E+00   0.483555E+01
   0.328000E+04   0.352069E-04   0.539613E-04   0.368213E+00   0.483555E+01
   0.329000E+04   0.355450E-04   0.542338E-04   0.368212E+00   0.483555E+01
   0.330000E+04   0.358917E-04   0.545105E-04   0.368210E+00   0.483555E+01
   0.331000E+04   0.362470E-04   0.547913E-04   0.368209E+00   0.483555E+01
   0.332000E+04   0.366102E-04   0.550756E-04   0.368209E+00   0.483555E+01
   0.333000E+04   0.369805E-04   0.553630E-04   0.368208E+00   0.483555E+01
   0.334000E+04   0.373577E-04   0.556537E-04   0.368207E+00   0.483555E+01
   0.335000E+04   0.377424E-04   0.559483E-04   0.368205E+00   0.483555E+01
   0.336000E+04   0.381347E-04   0.562467E-04   0.368204E+00   0.483555E+01
   0.337000E+04   0.385339E-04   0.565483E-04   0.368203E+00   0.483555E+01
   0.338000E+04   0.389394E-04   0.568526E-04   0.368203E+00   0.483555E+01
   0.339000E+04   0.393505E-04   0.571596E-04   0.368202E+00   0.483555E+01
   0.340000E+04   0.397677E-04   0.574697E-04   0.368201E+00   0.483555E+01
   0.341000E+04   0.401915E-04   0.577832E-04   0.368199E+00   0.483555E+01
   0.342000E+04   0.406216E-04   0.580997E-04   0.368198E+00   0.483555E+01
   0.343000E+04   0.410573E-04   0.584186E-04   0.368198E+00   0.483555E+01
   0.344000E+04   0.414979E-04   0.587397E-04   0.368197E+00   0.483555E+01
   0.345000E+04   0.419437E-04   0.590632E-04   0.368196E+00   0.483555E+01
   0.346000E+04   0.423952E-04   0.593898E-04   0.368194E+00   0.483555E+01
   0.347000E+04   0.428526E-04   0.597193E-04   0.368193E+00   0.483555E+01
   0.348000E+04   0.433154E-04   0.600512E-04   0.368193E+00   0.483555E+01
   0.349000E+04   0.437827E-04   0.603849E-04   0.368192E+00   0.483555E+01
   0.350000E+04   0.442544E-04   0.607206E-04   0.368191E+00   0.483555E+01
   0.351000E+04   0.447310E-04   0.610588E-04   0.368189E+00   0.483555E+01
   0.352000E+04   0.452130E-04   0.613999E-04   0.368188E+00   0.483555E+01
   0.353000E+04   0.457001E-04   0.617434E-04   0.368187E+00   0.483555E+01
   0.354000E+04   0.461916E-04   0.620887E-04   0.368187E+00   0.483555E+01
   0.355000E+04   0.466868E-04   0.624356E-04   0.368186E+00   0.483555E+01
   0.356000E+04   0.471860E-04   0.627845E-04   0.368185E+00   0.483555E+01
   0.357000E+04   0.476898E-04   0.631360E-04   0.368183E+00   0.483555E+01
   0.358000E+04   0.481985E-04   0.634899E-04   0.368182E+00   0.483555E+01
   0.359000E+04   0.487111E-04   0.638455E-04   0.368182E+00   0.483555E+01
   0.360000E+04   0.492269E-04   0.642023E-04   0.368181E+00   0.483555E+01
   0.361000E+04   0.497458E-04   0.645605E-04   0.368180E+00   0.483555E+01
   0.362000E+04   0.502683E-04   0.649207E-04   0.368179E+00   0.483555E+01
   0.363000E+04   0.507949E-04   0.652830E-04   0.368177E+00   0.483555E+01
   0.364000E+04   0.513251E-04   0.656470E-04   0.368177E+00   0.483555E+01
   0.365000E+04   0.518580E-04   0.660118E-04   0.368176E+00   0.483555E+01
   0.366000E+04   0.523931E-04   0.663774E-04   0.368175E+00   0.483555E+01
   0.367000E+04   0.529307E-04   0.667443E-04   0.368174E+00   0.483555E+01
   0.368000E+04   0.534716E-04   0.671130E-04   0.368173E+00   0.483555E+01
   0.369000E+04   0.540157E-04   0.674833E-04   0.368172E+00   0.483555E+01
   0.370000E+04   0.545622E-04   0.678542E-04   0.368171E+00   0.483555E+01
   0.371000E+04   0.551103E-04   0.682255E-04   0.368171E+00   0.483555E+01
   0.372000E+04   0.556599E-04   0.685975E-04   0.368170E+00   0.483555E+01
   0.373000E+04   0.562118E-04   0.689706E-04   0.368168E+00   0.483555E+01
   0.374000E+04   0.567664E-04   0.693452E-04   0.368167E+00   0.483555E+01
   0.375000E+04   0.573231E-04   0.697204E-04   0.368167E+00   0.483555E+01
   0.376000E+04   0.578810E-04   0.700957E-04   0.368166E+00   0.483555E+01
   0.377000E+04   0.584397E-04   0.704711E-04   0.368165E+00   0.483555E+01
   0.378000E+04   0.589996E-04   0.708470E-04   0.368164E+00   0.483555E+01
   0.379000E+04   0.595616E-04   0.712241E-04   0.368163E+00   0.483555E+01
   0.380000E+04   0.601255E-04   0.716020E-04   0.368162E+00   0.483555E+01
   0.381000E+04   0.606903E-04   0.719798E-04   0.368162E+00   0.483555E+01
   0.382000E+04   0.612554E-04   0.725464E-04   0.368161E+00   0.483555E+01
   0.383000E+04   0.618209E-04   0.732524E-04   0.368160E+00   0.483555E+01
   0.384000E+04   0.623874E-04   0.739609E-04   0.368159E+00   0.483555E+01
   0.385000E+04   0.629556E-04   0.746721E-04   0.368158E+00   0.483555E+01
   0.386000E+04   0.635245E-04   0.753849E-04   0.368157E+00   0.483555E+01
   0.387000E+04   0.640932E-04   0.760981E-04   0.368157E+00   0.483555E+01
   0.388000E+04   0.646614E-04   0.768117E-04   0.368156E+00   0.483555E+01
   0.389000E+04   0.652297E-04   0.775266E-04   0.368155E+00   0.483555E+01
   0.390000E+04   0.657988E-04   0.782436E-04   0.368154E+00   0.483555E+01
   0.391000E+04   0.663685E-04   0.789621E-04   0.368153E+00   0.483555E+01
   0.392000E+04   0.669377E-04   0.796808E-04   0.368153E+00   0.483555E+01
   0.393000E+04   0.675058E-04   0.803989E-04   0.368152E+00   0.483555E+01