title="breakthrough data set at     5 wells"
variables="time(days)","cavg","cpk","upk","zswi"
zone i=     1295
   0.100000E+02   0.138493E-08   0.243593E-08   0.446544E+00   0.485772E+01
   0.200000E+02   0.341938E-08   0.599208E-08   0.369762E+00   0.483826E+01
   0.300000E+02   0.709257E-08   0.123627E-07   0.369374E+00   0.483826E+01
   0.400000E+02   0.133005E-07   0.230537E-07   0.369388E+00   0.483826E+01
   0.500000E+02   0.232052E-07   0.399910E-07   0.369461E+00   0.483826E+01
   0.600000E+02   0.382418E-07   0.655194E-07   0.369563E+00   0.483826E+01
   0.700000E+02   0.600955E-07   0.102350E-06   0.369685E+00   0.483826E+01
   0.800000E+02   0.906818E-07   0.153517E-06   0.369794E+00   0.483826E+01
   0.900000E+02   0.132043E-06   0.222187E-06   0.369922E+00   0.483826E+01
   0.100000E+03   0.186307E-06   0.311590E-06   0.370046E+00   0.483826E+01
   0.110000E+03   0.255595E-06   0.424869E-06   0.370052E+00   0.483826E+01
   0.120000E+03   0.341904E-06   0.564870E-06   0.370165E+00   0.483826E+01
   0.130000E+03   0.447101E-06   0.734162E-06   0.370278E+00   0.483826E+01
   0.140000E+03   0.572860E-06   0.934934E-06   0.370387E+00   0.483826E+01
   0.150000E+03   0.720618E-06   0.116894E-05   0.370491E+00   0.483826E+01
   0.160000E+03   0.891553E-06   0.143749E-05   0.370589E+00   0.483826E+01
   0.170000E+03   0.108656E-05   0.174138E-05   0.370680E+00   0.483826E+01
   0.180000E+03   0.130625E-05   0.208099E-05   0.370766E+00   0.483826E+01
   0.190000E+03   0.155096E-05   0.245624E-05   0.370846E+00   0.483826E+01
   0.200000E+03   0.182077E-05   0.286664E-05   0.370920E+00   0.483826E+01
   0.210000E+03   0.211551E-05   0.331135E-05   0.370990E+00   0.483826E+01
   0.220000E+03   0.243477E-05   0.378923E-05   0.371055E+00   0.483826E+01
   0.230000E+03   0.277799E-05   0.429888E-05   0.371115E+00   0.483826E+01
   0.240000E+03   0.314440E-05   0.483867E-05   0.371172E+00   0.483826E+01
   0.250000E+03   0.353311E-05   0.540683E-05   0.371225E+00   0.483826E+01
   0.260000E+03   0.394312E-05   0.600145E-05   0.371275E+00   0.483826E+01
   0.270000E+03   0.437334E-05   0.662057E-05   0.371322E+00   0.483826E+01
   0.280000E+03   0.482259E-05   0.726215E-05   0.371366E+00   0.483826E+01
   0.290000E+03   0.528968E-05   0.792416E-05   0.371408E+00   0.483826E+01
   0.300000E+03   0.577336E-05   0.860457E-05   0.371447E+00   0.483826E+01
   0.310000E+03   0.627238E-05   0.930139E-05   0.371484E+00   0.483826E+01
   0.320000E+03   0.678550E-05   0.100127E-04   0.371520E+00   0.483826E+01
   0.330000E+03   0.731147E-05   0.107365E-04   0.371553E+00   0.483826E+01
   0.340000E+03   0.784909E-05   0.114712E-04   0.371585E+00   0.483826E+01
   0.350000E+03   0.839717E-05   0.122149E-04   0.371616E+00   0.483826E+01
   0.360000E+03   0.895457E-05   0.129660E-04   0.371645E+00   0.483826E+01
   0.370000E+03   0.952017E-05   0.137231E-04   0.371673E+00   0.483826E+01
   0.380000E+03   0.100929E-04   0.144845E-04   0.371700E+00   0.483826E+01
   0.390000E+03   0.106718E-04   0.152490E-04   0.371726E+00   0.483826E+01
   0.400000E+03   0.112558E-04   0.160154E-04   0.371751E+00   0.483826E+01
   0.410000E+03   0.118441E-04   0.167824E-04   0.371774E+00   0.483826E+01
   0.420000E+03   0.124358E-04   0.175489E-04   0.371797E+00   0.483826E+01
   0.430000E+03   0.130301E-04   0.183141E-04   0.371819E+00   0.483826E+01
   0.440000E+03   0.136262E-04   0.190768E-04   0.371840E+00   0.483826E+01
   0.450000E+03   0.142233E-04   0.198364E-04   0.371861E+00   0.483826E+01
   0.460000E+03   0.148209E-04   0.205921E-04   0.371880E+00   0.483826E+01
   0.470000E+03   0.154183E-04   0.213430E-04   0.371899E+00   0.483826E+01
   0.480000E+03   0.160148E-04   0.220887E-04   0.371918E+00   0.483826E+01
   0.490000E+03   0.166100E-04   0.228285E-04   0.371936E+00   0.483826E+01
   0.500000E+03   0.172034E-04   0.235619E-04   0.371953E+00   0.483826E+01
   0.510000E+03   0.177944E-04   0.242884E-04   0.371970E+00   0.483826E+01
   0.520000E+03   0.183826E-04   0.250075E-04   0.371986E+00   0.483826E+01
   0.530000E+03   0.189676E-04   0.257190E-04   0.372002E+00   0.483826E+01
   0.540000E+03   0.195490E-04   0.264225E-04   0.372017E+00   0.483826E+01
   0.550000E+03   0.201265E-04   0.271175E-04   0.372032E+00   0.483826E+01
   0.560000E+03   0.206997E-04   0.278040E-04   0.372047E+00   0.483826E+01
   0.570000E+03   0.212683E-04   0.284815E-04   0.372061E+00   0.483826E+01
   0.580000E+03   0.218320E-04   0.291499E-04   0.372074E+00   0.483826E+01
   0.590000E+03   0.223905E-04   0.298090E-04   0.372088E+00   0.483826E+01
   0.600000E+03   0.229435E-04   0.304585E-04   0.372100E+00   0.483826E+01
   0.610000E+03   0.234909E-04   0.310984E-04   0.372113E+00   0.483826E+01
   0.620000E+03   0.240324E-04   0.317285E-04   0.372125E+00   0.483826E+01
   0.630000E+03   0.245677E-04   0.323486E-04   0.372137E+00   0.483826E+01
   0.640000E+03   0.250967E-04   0.329587E-04   0.372148E+00   0.483826E+01
   0.650000E+03   0.256191E-04   0.335585E-04   0.372159E+00   0.483826E+01
   0.660000E+03   0.261348E-04   0.341481E-04   0.372170E+00   0.483826E+01
   0.670000E+03   0.266436E-04   0.347273E-04   0.372181E+00   0.483826E+01
   0.680000E+03   0.271453E-04   0.352960E-04   0.372191E+00   0.483826E+01
   0.690000E+03   0.276397E-04   0.358542E-04   0.372201E+00   0.483826E+01
   0.700000E+03   0.281268E-04   0.364019E-04   0.372211E+00   0.483826E+01
   0.710000E+03   0.286062E-04   0.369388E-04   0.372220E+00   0.483826E+01
   0.720000E+03   0.290779E-04   0.374650E-04   0.372229E+00   0.483826E+01
   0.730000E+03   0.295417E-04   0.379804E-04   0.372238E+00   0.483826E+01
   0.740000E+03   0.299975E-04   0.384849E-04   0.372247E+00   0.483826E+01
   0.750000E+03   0.304451E-04   0.389785E-04   0.372255E+00   0.483826E+01
   0.760000E+03   0.308843E-04   0.394611E-04   0.372264E+00   0.483826E+01
   0.770000E+03   0.313151E-04   0.399327E-04   0.372272E+00   0.483826E+01
   0.780000E+03   0.317372E-04   0.403930E-04   0.372280E+00   0.483826E+01
   0.790000E+03   0.321506E-04   0.408422E-04   0.372287E+00   0.483826E+01
   0.800000E+03   0.325550E-04   0.412891E-04   0.372294E+00   0.483826E+01
   0.810000E+03   0.329504E-04   0.417350E-04   0.372301E+00   0.483826E+01
   0.820000E+03   0.333366E-04   0.421684E-04   0.372308E+00   0.483826E+01
   0.830000E+03   0.337134E-04   0.425893E-04   0.372315E+00   0.483826E+01
   0.840000E+03   0.340808E-04   0.429976E-04   0.372322E+00   0.483826E+01
   0.850000E+03   0.344385E-04   0.433930E-04   0.372328E+00   0.483826E+01
   0.860000E+03   0.347866E-04   0.437756E-04   0.372334E+00   0.483826E+01
   0.870000E+03   0.351248E-04   0.441451E-04   0.372340E+00   0.483826E+01
   0.880000E+03   0.354531E-04   0.445015E-04   0.372346E+00   0.483826E+01
   0.890000E+03   0.357713E-04   0.448446E-04   0.372352E+00   0.483826E+01
   0.900000E+03   0.360794E-04   0.451745E-04   0.372357E+00   0.483826E+01
   0.910000E+03   0.363773E-04   0.454909E-04   0.372363E+00   0.483826E+01
   0.920000E+03   0.366648E-04   0.457939E-04   0.372368E+00   0.483826E+01
   0.930000E+03   0.369420E-04   0.460835E-04   0.372373E+00   0.483826E+01
   0.940000E+03   0.372087E-04   0.463595E-04   0.372378E+00   0.483826E+01
   0.950000E+03   0.374650E-04   0.466220E-04   0.372383E+00   0.483826E+01
   0.960000E+03   0.377108E-04   0.468710E-04   0.372388E+00   0.483826E+01
   0.970000E+03   0.379460E-04   0.471065E-04   0.372392E+00   0.483826E+01
   0.980000E+03   0.381707E-04   0.473285E-04   0.372397E+00   0.483826E+01
   0.990000E+03   0.383850E-04   0.475372E-04   0.372401E+00   0.483826E+01
   0.100000E+04   0.385887E-04   0.477326E-04   0.372406E+00   0.483826E+01
   0.101000E+04   0.387820E-04   0.479148E-04   0.372410E+00   0.483826E+01
   0.102000E+04   0.389649E-04   0.480839E-04   0.372414E+00   0.483826E+01
   0.103000E+04   0.391375E-04   0.482401E-04   0.372418E+00   0.483826E+01
   0.104000E+04   0.392999E-04   0.483835E-04   0.372423E+00   0.483826E+01
   0.105000E+04   0.394521E-04   0.485143E-04   0.372426E+00   0.483826E+01
   0.106000E+04   0.395943E-04   0.486327E-04   0.372430E+00   0.483826E+01
   0.107000E+04   0.397266E-04   0.487389E-04   0.372434E+00   0.483826E+01
   0.108000E+04   0.398491E-04   0.488331E-04   0.372438E+00   0.483826E+01
   0.109000E+04   0.399620E-04   0.489157E-04   0.372442E+00   0.483826E+01
   0.110000E+04   0.400655E-04   0.489868E-04   0.372445E+00   0.483826E+01
   0.111000E+04   0.401598E-04   0.490664E-04   0.372449E+00   0.483826E+01
   0.112000E+04   0.402449E-04   0.491395E-04   0.372452E+00   0.483826E+01
   0.113000E+04   0.403213E-04   0.492032E-04   0.372455E+00   0.483826E+01
   0.114000E+04   0.403890E-04   0.492578E-04   0.372459E+00   0.483826E+01
   0.115000E+04   0.404483E-04   0.493037E-04   0.372462E+00   0.483826E+01
   0.116000E+04   0.404995E-04   0.493412E-04   0.372465E+00   0.483826E+01
   0.117000E+04   0.405428E-04   0.493706E-04   0.372468E+00   0.483826E+01
   0.118000E+04   0.405785E-04   0.493921E-04   0.372470E+00   0.483826E+01
   0.119000E+04   0.406069E-04   0.494062E-04   0.372473E+00   0.483826E+01
   0.120000E+04   0.406282E-04   0.494132E-04   0.372476E+00   0.483826E+01
   0.121000E+04   0.406429E-04   0.494135E-04   0.372478E+00   0.483826E+01
   0.122000E+04   0.406511E-04   0.494074E-04   0.372481E+00   0.483826E+01
   0.123000E+04   0.406533E-04   0.493953E-04   0.372483E+00   0.483826E+01
   0.124000E+04   0.406497E-04   0.493775E-04   0.372486E+00   0.483826E+01
   0.125000E+04   0.406407E-04   0.493544E-04   0.372488E+00   0.483826E+01
   0.126000E+04   0.406266E-04   0.493264E-04   0.372490E+00   0.483826E+01
   0.127000E+04   0.406077E-04   0.492939E-04   0.372492E+00   0.483826E+01
   0.128000E+04   0.405844E-04   0.492572E-04   0.372494E+00   0.483826E+01
   0.129000E+04   0.405571E-04   0.492166E-04   0.372496E+00   0.483826E+01
   0.130000E+04   0.405259E-04   0.491726E-04   0.372498E+00   0.483826E+01
   0.131000E+04   0.404913E-04   0.491254E-04   0.372500E+00   0.483826E+01
   0.132000E+04   0.404537E-04   0.490755E-04   0.372502E+00   0.483826E+01
   0.133000E+04   0.404132E-04   0.490232E-04   0.372503E+00   0.483826E+01
   0.134000E+04   0.403703E-04   0.489687E-04   0.372505E+00   0.483826E+01
   0.135000E+04   0.403253E-04   0.489125E-04   0.372507E+00   0.483826E+01
   0.136000E+04   0.402785E-04   0.488548E-04   0.372508E+00   0.483826E+01
   0.137000E+04   0.402301E-04   0.487960E-04   0.372510E+00   0.483826E+01
   0.138000E+04   0.401806E-04   0.487363E-04   0.372511E+00   0.483826E+01
   0.139000E+04   0.401303E-04   0.486762E-04   0.372513E+00   0.483826E+01
   0.140000E+04   0.400794E-04   0.486159E-04   0.372514E+00   0.483826E+01
   0.141000E+04   0.400283E-04   0.485557E-04   0.372516E+00   0.483826E+01
   0.142000E+04   0.399773E-04   0.484959E-04   0.372517E+00   0.483826E+01
   0.143000E+04   0.399268E-04   0.484368E-04   0.372519E+00   0.483826E+01
   0.144000E+04   0.398769E-04   0.483787E-04   0.372520E+00   0.483826E+01
   0.145000E+04   0.398282E-04   0.483219E-04   0.372521E+00   0.483826E+01
   0.146000E+04   0.397807E-04   0.482667E-04   0.372523E+00   0.483826E+01
   0.147000E+04   0.397350E-04   0.482133E-04   0.372524E+00   0.483826E+01
   0.148000E+04   0.396913E-04   0.481620E-04   0.372525E+00   0.483826E+01
   0.149000E+04   0.396499E-04   0.481131E-04   0.372526E+00   0.483826E+01
   0.150000E+04   0.396111E-04   0.480668E-04   0.372527E+00   0.483826E+01
   0.151000E+04   0.395752E-04   0.480234E-04   0.372529E+00   0.483826E+01
   0.152000E+04   0.395426E-04   0.479832E-04   0.372530E+00   0.483826E+01
   0.153000E+04   0.395136E-04   0.479464E-04   0.372531E+00   0.483826E+01
   0.154000E+04   0.394885E-04   0.479132E-04   0.372532E+00   0.483826E+01
   0.155000E+04   0.394676E-04   0.478841E-04   0.372533E+00   0.483826E+01
   0.156000E+04   0.394512E-04   0.478590E-04   0.372534E+00   0.483826E+01
   0.157000E+04   0.394397E-04   0.478385E-04   0.372535E+00   0.483826E+01
   0.158000E+04   0.394334E-04   0.478226E-04   0.372536E+00   0.483826E+01
   0.159000E+04   0.394325E-04   0.478116E-04   0.372537E+00   0.483826E+01
   0.160000E+04   0.394375E-04   0.478057E-04   0.372539E+00   0.483826E+01
   0.161000E+04   0.394486E-04   0.478053E-04   0.372540E+00   0.483826E+01
   0.162000E+04   0.394661E-04   0.478104E-04   0.372541E+00   0.483826E+01
   0.163000E+04   0.394903E-04   0.478214E-04   0.372542E+00   0.483826E+01
   0.164000E+04   0.395216E-04   0.478384E-04   0.372542E+00   0.483826E+01
   0.165000E+04   0.395602E-04   0.478616E-04   0.372543E+00   0.483826E+01
   0.166000E+04   0.396064E-04   0.478912E-04   0.372544E+00   0.483826E+01
   0.167000E+04   0.396605E-04   0.479274E-04   0.372545E+00   0.483826E+01
   0.168000E+04   0.397227E-04   0.479703E-04   0.372546E+00   0.483826E+01
   0.169000E+04   0.397933E-04   0.480201E-04   0.372547E+00   0.483826E+01
   0.170000E+04   0.398726E-04   0.480770E-04   0.372548E+00   0.483826E+01
   0.171000E+04   0.399607E-04   0.481411E-04   0.372549E+00   0.483826E+01
   0.172000E+04   0.400579E-04   0.482124E-04   0.372549E+00   0.483826E+01
   0.173000E+04   0.401644E-04   0.482911E-04   0.372550E+00   0.483826E+01
   0.174000E+04   0.402803E-04   0.483773E-04   0.372551E+00   0.483826E+01
   0.175000E+04   0.404059E-04   0.484711E-04   0.372552E+00   0.483826E+01
   0.176000E+04   0.405413E-04   0.485724E-04   0.372552E+00   0.483826E+01
   0.177000E+04   0.406867E-04   0.486815E-04   0.372553E+00   0.483826E+01
   0.178000E+04   0.408421E-04   0.487983E-04   0.372553E+00   0.483826E+01
   0.179000E+04   0.410078E-04   0.489228E-04   0.372554E+00   0.483826E+01
   0.180000E+04   0.411837E-04   0.490997E-04   0.372555E+00   0.483826E+01
   0.181000E+04   0.413700E-04   0.493479E-04   0.372555E+00   0.483826E+01
   0.182000E+04   0.415668E-04   0.496088E-04   0.372556E+00   0.483826E+01
   0.183000E+04   0.417741E-04   0.498826E-04   0.372556E+00   0.483826E+01
   0.184000E+04   0.419919E-04   0.501691E-04   0.372557E+00   0.483826E+01
   0.185000E+04   0.422204E-04   0.504684E-04   0.372557E+00   0.483826E+01
   0.186000E+04   0.424594E-04   0.507803E-04   0.372558E+00   0.483826E+01
   0.187000E+04   0.427091E-04   0.511048E-04   0.372558E+00   0.483826E+01
   0.188000E+04   0.429694E-04   0.514419E-04   0.372558E+00   0.483826E+01
   0.189000E+04   0.432403E-04   0.517913E-04   0.372559E+00   0.483826E+01
   0.190000E+04   0.435218E-04   0.521530E-04   0.372559E+00   0.483826E+01
   0.191000E+04   0.438138E-04   0.525270E-04   0.372559E+00   0.483826E+01
   0.192000E+04   0.441163E-04   0.529129E-04   0.372560E+00   0.483826E+01
   0.193000E+04   0.444292E-04   0.533108E-04   0.372560E+00   0.483826E+01
   0.194000E+04   0.447525E-04   0.537204E-04   0.372560E+00   0.483826E+01
   0.195000E+04   0.450862E-04   0.541416E-04   0.372560E+00   0.483826E+01
   0.196000E+04   0.454300E-04   0.545743E-04   0.372561E+00   0.483826E+01
   0.197000E+04   0.457840E-04   0.550182E-04   0.372561E+00   0.483826E+01
   0.198000E+04   0.461481E-04   0.554733E-04   0.372561E+00   0.483826E+01
   0.199000E+04   0.465222E-04   0.559393E-04   0.372561E+00   0.483826E+01
   0.200000E+04   0.469061E-04   0.564161E-04   0.372561E+00   0.483826E+01
   0.201000E+04   0.472998E-04   0.569035E-04   0.372561E+00   0.483826E+01
   0.202000E+04   0.477032E-04   0.574013E-04   0.372562E+00   0.483826E+01
   0.203000E+04   0.481161E-04   0.579094E-04   0.372562E+00   0.483826E+01
   0.204000E+04   0.485385E-04   0.584276E-04   0.372562E+00   0.483826E+01
   0.205000E+04   0.489703E-04   0.589558E-04   0.372563E+00   0.483826E+01
   0.206000E+04   0.494114E-04   0.594937E-04   0.372563E+00   0.483826E+01
   0.207000E+04   0.498616E-04   0.600413E-04   0.372564E+00   0.483826E+01
   0.208000E+04   0.503209E-04   0.605983E-04   0.372564E+00   0.483826E+01
   0.209000E+04   0.507892E-04   0.611647E-04   0.372565E+00   0.483826E+01
   0.210000E+04   0.512663E-04   0.617403E-04   0.372566E+00   0.483826E+01
   0.211000E+04   0.517522E-04   0.623249E-04   0.372566E+00   0.483826E+01
   0.212000E+04   0.522468E-04   0.629185E-04   0.372567E+00   0.483826E+01
   0.213000E+04   0.527500E-04   0.635209E-04   0.372567E+00   0.483826E+01
   0.214000E+04   0.532617E-04   0.641319E-04   0.372568E+00   0.483826E+01
   0.215000E+04   0.537818E-04   0.647515E-04   0.372568E+00   0.483826E+01
   0.216000E+04   0.543102E-04   0.653795E-04   0.372569E+00   0.483826E+01
   0.217000E+04   0.548469E-04   0.660158E-04   0.372570E+00   0.483826E+01
   0.218000E+04   0.553917E-04   0.666602E-04   0.372570E+00   0.483826E+01
   0.219000E+04   0.559445E-04   0.673127E-04   0.372571E+00   0.483826E+01
   0.220000E+04   0.565053E-04   0.679731E-04   0.372571E+00   0.483826E+01
   0.221000E+04   0.570739E-04   0.686413E-04   0.372572E+00   0.483826E+01
   0.222000E+04   0.576504E-04   0.693171E-04   0.372572E+00   0.483826E+01
   0.223000E+04   0.582345E-04   0.700005E-04   0.372573E+00   0.483826E+01
   0.224000E+04   0.588261E-04   0.706912E-04   0.372573E+00   0.483826E+01
   0.225000E+04   0.594253E-04   0.713893E-04   0.372574E+00   0.483826E+01
   0.226000E+04   0.600318E-04   0.720944E-04   0.372574E+00   0.483826E+01
   0.227000E+04   0.606457E-04   0.728065E-04   0.372575E+00   0.483826E+01
   0.228000E+04   0.612667E-04   0.735255E-04   0.372575E+00   0.483826E+01
   0.229000E+04   0.618948E-04   0.742511E-04   0.372576E+00   0.483826E+01
   0.230000E+04   0.625299E-04   0.749834E-04   0.372576E+00   0.483826E+01
   0.231000E+04   0.631719E-04   0.757220E-04   0.372577E+00   0.483826E+01
   0.232000E+04   0.638206E-04   0.764669E-04   0.372577E+00   0.483826E+01
   0.233000E+04   0.644760E-04   0.772180E-04   0.372578E+00   0.483826E+01
   0.234000E+04   0.651380E-04   0.779751E-04   0.372579E+00   0.483826E+01
   0.235000E+04   0.658064E-04   0.787380E-04   0.372579E+00   0.483826E+01
   0.236000E+04   0.664812E-04   0.795067E-04   0.372580E+00   0.483826E+01
   0.237000E+04   0.671623E-04   0.802810E-04   0.372580E+00   0.483826E+01
   0.238000E+04   0.678495E-04   0.810607E-04   0.372581E+00   0.483826E+01
   0.239000E+04   0.685427E-04   0.818458E-04   0.372581E+00   0.483826E+01
   0.240000E+04   0.692419E-04   0.826360E-04   0.372582E+00   0.483826E+01
   0.241000E+04   0.699469E-04   0.834314E-04   0.372582E+00   0.483826E+01
   0.242000E+04   0.706577E-04   0.842316E-04   0.372583E+00   0.483826E+01
   0.243000E+04   0.713741E-04   0.850367E-04   0.372583E+00   0.483826E+01
   0.244000E+04   0.720961E-04   0.858466E-04   0.372584E+00   0.483826E+01
   0.245000E+04   0.728235E-04   0.866609E-04   0.372584E+00   0.483826E+01
   0.246000E+04   0.735562E-04   0.874798E-04   0.372585E+00   0.483826E+01
   0.247000E+04   0.742942E-04   0.883030E-04   0.372585E+00   0.483826E+01
   0.248000E+04   0.750373E-04   0.891304E-04   0.372586E+00   0.483826E+01
   0.249000E+04   0.757855E-04   0.899619E-04   0.372586E+00   0.483826E+01
   0.250000E+04   0.765386E-04   0.907974E-04   0.372587E+00   0.483826E+01
   0.251000E+04   0.772966E-04   0.916368E-04   0.372587E+00   0.483826E+01
   0.252000E+04   0.780593E-04   0.924800E-04   0.372587E+00   0.483826E+01
   0.253000E+04   0.788266E-04   0.936531E-04   0.372588E+00   0.483826E+01
   0.254000E+04   0.795985E-04   0.949614E-04   0.372588E+00   0.483826E+01
   0.255000E+04   0.803749E-04   0.962792E-04   0.372589E+00   0.483826E+01
   0.256000E+04   0.811556E-04   0.976063E-04   0.372589E+00   0.483826E+01
   0.257000E+04   0.819406E-04   0.989426E-04   0.372590E+00   0.483826E+01
   0.258000E+04   0.827296E-04   0.100288E-03   0.372590E+00   0.483826E+01
   0.259000E+04   0.835228E-04   0.101642E-03   0.372591E+00   0.483826E+01
   0.260000E+04   0.843199E-04   0.103005E-03   0.372591E+00   0.483826E+01
   0.261000E+04   0.851208E-04   0.104376E-03   0.372592E+00   0.483826E+01
   0.262000E+04   0.859255E-04   0.105756E-03   0.372592E+00   0.483826E+01
   0.263000E+04   0.867338E-04   0.107144E-03   0.372593E+00   0.483826E+01
   0.264000E+04   0.875457E-04   0.108540E-03   0.372593E+00   0.483826E+01
   0.265000E+04   0.883610E-04   0.109944E-03   0.372594E+00   0.483826E+01
   0.266000E+04   0.891797E-04   0.111355E-03   0.372594E+00   0.483826E+01
   0.267000E+04   0.900016E-04   0.112774E-03   0.372594E+00   0.483826E+01
   0.268000E+04   0.908267E-04   0.114201E-03   0.372595E+00   0.483826E+01
   0.269000E+04   0.916548E-04   0.115635E-03   0.372595E+00   0.483826E+01
   0.270000E+04   0.924858E-04   0.117075E-03   0.372596E+00   0.483826E+01
   0.271000E+04   0.933197E-04   0.118523E-03   0.372596E+00   0.483826E+01
   0.272000E+04   0.941563E-04   0.119978E-03   0.372597E+00   0.483826E+01
   0.273000E+04   0.949956E-04   0.121439E-03   0.372597E+00   0.483826E+01
   0.274000E+04   0.958375E-04   0.122906E-03   0.372598E+00   0.483826E+01
   0.275000E+04   0.966818E-04   0.124380E-03   0.372598E+00   0.483826E+01
   0.276000E+04   0.975284E-04   0.125859E-03   0.372599E+00   0.483826E+01
   0.277000E+04   0.983773E-04   0.127345E-03   0.372599E+00   0.483826E+01
   0.278000E+04   0.992284E-04   0.128836E-03   0.372600E+00   0.483826E+01
   0.279000E+04   0.100082E-03   0.130333E-03   0.372600E+00   0.483826E+01
   0.280000E+04   0.100937E-03   0.131835E-03   0.372601E+00   0.483826E+01
   0.281000E+04   0.101794E-03   0.133342E-03   0.372601E+00   0.483826E+01
   0.282000E+04   0.102652E-03   0.134855E-03   0.372602E+00   0.483826E+01
   0.283000E+04   0.103513E-03   0.136372E-03   0.372602E+00   0.483826E+01
   0.284000E+04   0.104375E-03   0.137894E-03   0.372603E+00   0.483826E+01
   0.285000E+04   0.105239E-03   0.139421E-03   0.372603E+00   0.483826E+01
   0.286000E+04   0.106104E-03   0.140952E-03   0.372604E+00   0.483826E+01
   0.287000E+04   0.106970E-03   0.142487E-03   0.372604E+00   0.483826E+01
   0.288000E+04   0.107838E-03   0.144026E-03   0.372605E+00   0.483826E+01
   0.289000E+04   0.108707E-03   0.145569E-03   0.372605E+00   0.483826E+01
   0.290000E+04   0.109577E-03   0.147116E-03   0.372606E+00   0.483826E+01
   0.291000E+04   0.110448E-03   0.148666E-03   0.372606E+00   0.483826E+01
   0.292000E+04   0.111319E-03   0.150220E-03   0.372606E+00   0.483826E+01
   0.293000E+04   0.112192E-03   0.151777E-03   0.372607E+00   0.483826E+01
   0.294000E+04   0.113066E-03   0.153337E-03   0.372607E+00   0.483826E+01
   0.295000E+04   0.113940E-03   0.154900E-03   0.372608E+00   0.483826E+01
   0.296000E+04   0.114815E-03   0.156466E-03   0.372608E+00   0.483826E+01
   0.297000E+04   0.115691E-03   0.158034E-03   0.372609E+00   0.483826E+01
   0.298000E+04   0.116567E-03   0.159606E-03   0.372609E+00   0.483826E+01
   0.299000E+04   0.117444E-03   0.161179E-03   0.372610E+00   0.483826E+01
   0.300000E+04   0.118321E-03   0.162755E-03   0.372610E+00   0.483826E+01
   0.301000E+04   0.119198E-03   0.164333E-03   0.372610E+00   0.483826E+01
   0.302000E+04   0.120076E-03   0.165913E-03   0.372611E+00   0.483826E+01
   0.303000E+04   0.120954E-03   0.167495E-03   0.372611E+00   0.483826E+01
   0.304000E+04   0.121833E-03   0.169079E-03   0.372612E+00   0.483826E+01
   0.305000E+04   0.122711E-03   0.170664E-03   0.372612E+00   0.483826E+01
   0.306000E+04   0.123590E-03   0.172251E-03   0.372612E+00   0.483826E+01
   0.307000E+04   0.124469E-03   0.173840E-03   0.372613E+00   0.483826E+01
   0.308000E+04   0.125347E-03   0.175429E-03   0.372613E+00   0.483826E+01
   0.309000E+04   0.126226E-03   0.177020E-03   0.372613E+00   0.483826E+01
   0.310000E+04   0.127105E-03   0.178613E-03   0.372614E+00   0.483826E+01
   0.311000E+04   0.127983E-03   0.180206E-03   0.372614E+00   0.483826E+01
   0.312000E+04   0.128861E-03   0.181799E-03   0.372614E+00   0.483826E+01
   0.313000E+04   0.129739E-03   0.183394E-03   0.372615E+00   0.483826E+01
   0.314000E+04   0.130616E-03   0.184989E-03   0.372615E+00   0.483826E+01
   0.315000E+04   0.131493E-03   0.186585E-03   0.372615E+00   0.483826E+01
   0.316000E+04   0.132370E-03   0.188180E-03   0.372616E+00   0.483826E+01
   0.317000E+04   0.133246E-03   0.189777E-03   0.372616E+00   0.483826E+01
   0.318000E+04   0.134121E-03   0.191373E-03   0.372616E+00   0.483826E+01
   0.319000E+04   0.134996E-03   0.192969E-03   0.372616E+00   0.483826E+01
   0.320000E+04   0.135870E-03   0.194565E-03   0.372617E+00   0.483826E+01
   0.321000E+04   0.136744E-03   0.196162E-03   0.372617E+00   0.483826E+01
   0.322000E+04   0.137617E-03   0.197757E-03   0.372617E+00   0.483826E+01
   0.323000E+04   0.138490E-03   0.199353E-03   0.372618E+00   0.483826E+01
   0.324000E+04   0.139361E-03   0.200948E-03   0.372618E+00   0.483826E+01
   0.325000E+04   0.140232E-03   0.202543E-03   0.372618E+00   0.483826E+01
   0.326000E+04   0.141102E-03   0.204137E-03   0.372618E+00   0.483826E+01
   0.327000E+04   0.141971E-03   0.205730E-03   0.372619E+00   0.483826E+01
   0.328000E+04   0.142840E-03   0.207322E-03   0.372619E+00   0.483826E+01
   0.329000E+04   0.143707E-03   0.208914E-03   0.372619E+00   0.483826E+01
   0.330000E+04   0.144574E-03   0.210505E-03   0.372619E+00   0.483826E+01
   0.331000E+04   0.145440E-03   0.212095E-03   0.372620E+00   0.483826E+01
   0.332000E+04   0.146304E-03   0.213683E-03   0.372620E+00   0.483826E+01
   0.333000E+04   0.147168E-03   0.215270E-03   0.372620E+00   0.483826E+01
   0.334000E+04   0.148030E-03   0.216856E-03   0.372620E+00   0.483826E+01
   0.335000E+04   0.148891E-03   0.218441E-03   0.372620E+00   0.483826E+01
   0.336000E+04   0.149751E-03   0.220024E-03   0.372621E+00   0.483826E+01
   0.337000E+04   0.150610E-03   0.221606E-03   0.372621E+00   0.483826E+01
   0.338000E+04   0.151467E-03   0.223186E-03   0.372621E+00   0.483826E+01
   0.339000E+04   0.152323E-03   0.224764E-03   0.372621E+00   0.483826E+01
   0.340000E+04   0.153178E-03   0.226340E-03   0.372621E+00   0.483826E+01
   0.341000E+04   0.154031E-03   0.227914E-03   0.372622E+00   0.483826E+01
   0.342000E+04   0.154883E-03   0.229486E-03   0.372622E+00   0.483826E+01
   0.343000E+04   0.155733E-03   0.231056E-03   0.372622E+00   0.483826E+01
   0.344000E+04   0.156581E-03   0.232623E-03   0.372622E+00   0.483826E+01
   0.345000E+04   0.157428E-03   0.234188E-03   0.372622E+00   0.483826E+01
   0.346000E+04   0.158273E-03   0.235751E-03   0.372622E+00   0.483826E+01
   0.347000E+04   0.159116E-03   0.237311E-03   0.372623E+00   0.483826E+01
   0.348000E+04   0.159958E-03   0.238868E-03   0.372623E+00   0.483826E+01
   0.349000E+04   0.160797E-03   0.240422E-03   0.372623E+00   0.483826E+01
   0.350000E+04   0.161635E-03   0.241974E-03   0.372623E+00   0.483826E+01
   0.351000E+04   0.162471E-03   0.243522E-03   0.372623E+00   0.483826E+01
   0.352000E+04   0.163304E-03   0.245067E-03   0.372623E+00   0.483826E+01
   0.353000E+04   0.164136E-03   0.246609E-03   0.372624E+00   0.483826E+01
   0.354000E+04   0.164965E-03   0.248147E-03   0.372624E+00   0.483826E+01
   0.355000E+04   0.165792E-03   0.249682E-03   0.372624E+00   0.483826E+01
   0.356000E+04   0.166617E-03   0.251214E-03   0.372624E+00   0.483826E+01
   0.357000E+04   0.167440E-03   0.252742E-03   0.372624E+00   0.483826E+01
   0.358000E+04   0.168260E-03   0.254266E-03   0.372624E+00   0.483826E+01
   0.359000E+04   0.169078E-03   0.255786E-03   0.372624E+00   0.483826E+01
   0.360000E+04   0.169893E-03   0.257302E-03   0.372624E+00   0.483826E+01
   0.361000E+04   0.170706E-03   0.258815E-03   0.372625E+00   0.483826E+01
   0.362000E+04   0.171517E-03   0.260323E-03   0.372625E+00   0.483826E+01
   0.363000E+04   0.172325E-03   0.261827E-03   0.372625E+00   0.483826E+01
   0.364000E+04   0.173130E-03   0.263327E-03   0.372625E+00   0.483826E+01
   0.365000E+04   0.173933E-03   0.264822E-03   0.372625E+00   0.483826E+01
   0.366000E+04   0.174733E-03   0.266313E-03   0.372625E+00   0.483826E+01
   0.367000E+04   0.175530E-03   0.267800E-03   0.372625E+00   0.483826E+01
   0.368000E+04   0.176325E-03   0.269282E-03   0.372625E+00   0.483826E+01
   0.369000E+04   0.177117E-03   0.270759E-03   0.372626E+00   0.483826E+01
   0.370000E+04   0.177906E-03   0.272232E-03   0.372626E+00   0.483826E+01
   0.371000E+04   0.178692E-03   0.273700E-03   0.372626E+00   0.483826E+01
   0.372000E+04   0.179476E-03   0.275163E-03   0.372626E+00   0.483826E+01
   0.373000E+04   0.180257E-03   0.276622E-03   0.372626E+00   0.483826E+01
   0.374000E+04   0.181035E-03   0.278075E-03   0.372626E+00   0.483826E+01
   0.375000E+04   0.181809E-03   0.279523E-03   0.372626E+00   0.483826E+01
   0.376000E+04   0.182581E-03   0.280966E-03   0.372626E+00   0.483826E+01
   0.377000E+04   0.183350E-03   0.282405E-03   0.372626E+00   0.483826E+01
   0.378000E+04   0.184116E-03   0.283838E-03   0.372626E+00   0.483826E+01
   0.379000E+04   0.184879E-03   0.285265E-03   0.372626E+00   0.483826E+01
   0.380000E+04   0.185639E-03   0.286688E-03   0.372626E+00   0.483826E+01
   0.381000E+04   0.186396E-03   0.288105E-03   0.372627E+00   0.483826E+01
   0.382000E+04   0.187149E-03   0.289517E-03   0.372627E+00   0.483826E+01
   0.383000E+04   0.187900E-03   0.290923E-03   0.372627E+00   0.483826E+01
   0.384000E+04   0.188647E-03   0.292324E-03   0.372627E+00   0.483826E+01
   0.385000E+04   0.189391E-03   0.293719E-03   0.372627E+00   0.483826E+01
   0.386000E+04   0.190132E-03   0.295108E-03   0.372627E+00   0.483826E+01
   0.387000E+04   0.190870E-03   0.296492E-03   0.372627E+00   0.483826E+01
   0.388000E+04   0.191604E-03   0.297871E-03   0.372627E+00   0.483826E+01
   0.389000E+04   0.192336E-03   0.299243E-03   0.372627E+00   0.483826E+01
   0.390000E+04   0.193064E-03   0.300610E-03   0.372627E+00   0.483826E+01
   0.391000E+04   0.193788E-03   0.301971E-03   0.372627E+00   0.483826E+01
   0.392000E+04   0.194510E-03   0.303326E-03   0.372627E+00   0.483826E+01
   0.393000E+04   0.195228E-03   0.304676E-03   0.372627E+00   0.483826E+01