title="breakthrough data set at     5 wells"
variables="time(days)","cavg","cpk","upk","zswi"
zone i=     1295
   0.100000E+02   0.478205E-09   0.885560E-09   0.451936E+00   0.484864E+01
   0.200000E+02   0.104294E-08   0.209440E-08   0.367074E+00   0.483016E+01
   0.300000E+02   0.203463E-08   0.423416E-08   0.366894E+00   0.483016E+01
   0.400000E+02   0.365548E-08   0.774744E-08   0.367148E+00   0.483016E+01
   0.500000E+02   0.615033E-08   0.131735E-07   0.367433E+00   0.483016E+01
   0.600000E+02   0.980729E-08   0.211506E-07   0.367729E+00   0.483016E+01
   0.700000E+02   0.149529E-07   0.324057E-07   0.368042E+00   0.483016E+01
   0.800000E+02   0.219489E-07   0.477458E-07   0.368331E+00   0.483016E+01
   0.900000E+02   0.311806E-07   0.680296E-07   0.368626E+00   0.483016E+01
   0.100000E+03   0.430484E-07   0.941458E-07   0.368912E+00   0.483016E+01
   0.110000E+03   0.579579E-07   0.126986E-06   0.369183E+00   0.483016E+01
   0.120000E+03   0.763094E-07   0.167419E-06   0.369441E+00   0.483016E+01
   0.130000E+03   0.984884E-07   0.216260E-06   0.369685E+00   0.483016E+01
   0.140000E+03   0.124988E-06   0.274511E-06   0.369670E+00   0.483016E+01
   0.150000E+03   0.156047E-06   0.342644E-06   0.369915E+00   0.483016E+01
   0.160000E+03   0.191970E-06   0.421225E-06   0.370144E+00   0.483016E+01
   0.170000E+03   0.233023E-06   0.510714E-06   0.370358E+00   0.483016E+01
   0.180000E+03   0.279436E-06   0.611461E-06   0.370559E+00   0.483016E+01
   0.190000E+03   0.331398E-06   0.723705E-06   0.370748E+00   0.483016E+01
   0.200000E+03   0.389060E-06   0.847573E-06   0.370926E+00   0.483016E+01
   0.210000E+03   0.452529E-06   0.983083E-06   0.371096E+00   0.483016E+01
   0.220000E+03   0.521877E-06   0.113015E-05   0.371257E+00   0.483016E+01
   0.230000E+03   0.597136E-06   0.128860E-05   0.371410E+00   0.483016E+01
   0.240000E+03   0.678304E-06   0.145817E-05   0.371557E+00   0.483016E+01
   0.250000E+03   0.765340E-06   0.163849E-05   0.371698E+00   0.483016E+01
   0.260000E+03   0.858170E-06   0.182915E-05   0.371833E+00   0.483016E+01
   0.270000E+03   0.956680E-06   0.202962E-05   0.371963E+00   0.483016E+01
   0.280000E+03   0.106072E-05   0.223933E-05   0.372088E+00   0.483016E+01
   0.290000E+03   0.117010E-05   0.245763E-05   0.372208E+00   0.483016E+01
   0.300000E+03   0.128460E-05   0.268378E-05   0.372325E+00   0.483016E+01
   0.310000E+03   0.140393E-05   0.291700E-05   0.372437E+00   0.483016E+01
   0.320000E+03   0.152778E-05   0.315642E-05   0.372545E+00   0.483016E+01
   0.330000E+03   0.165578E-05   0.340111E-05   0.372651E+00   0.483016E+01
   0.340000E+03   0.178752E-05   0.365007E-05   0.372753E+00   0.483016E+01
   0.350000E+03   0.192252E-05   0.390223E-05   0.372852E+00   0.483016E+01
   0.360000E+03   0.206028E-05   0.415645E-05   0.372948E+00   0.483016E+01
   0.370000E+03   0.220022E-05   0.441152E-05   0.373042E+00   0.483016E+01
   0.380000E+03   0.234173E-05   0.466616E-05   0.373133E+00   0.483016E+01
   0.390000E+03   0.248416E-05   0.491906E-05   0.373222E+00   0.483016E+01
   0.400000E+03   0.262681E-05   0.516885E-05   0.373308E+00   0.483016E+01
   0.410000E+03   0.276898E-05   0.541416E-05   0.373393E+00   0.483016E+01
   0.420000E+03   0.290992E-05   0.565361E-05   0.373475E+00   0.483016E+01
   0.430000E+03   0.304888E-05   0.588583E-05   0.373555E+00   0.483016E+01
   0.440000E+03   0.318510E-05   0.610951E-05   0.373632E+00   0.483016E+01
   0.450000E+03   0.331784E-05   0.632338E-05   0.373708E+00   0.483016E+01
   0.460000E+03   0.344635E-05   0.652625E-05   0.373781E+00   0.483016E+01
   0.470000E+03   0.356992E-05   0.671698E-05   0.373853E+00   0.483016E+01
   0.480000E+03   0.368783E-05   0.689455E-05   0.373922E+00   0.483016E+01
   0.490000E+03   0.379942E-05   0.705799E-05   0.373989E+00   0.483016E+01
   0.500000E+03   0.390404E-05   0.720642E-05   0.374055E+00   0.483016E+01
   0.510000E+03   0.400109E-05   0.733901E-05   0.374119E+00   0.483016E+01
   0.520000E+03   0.409000E-05   0.745501E-05   0.374182E+00   0.483016E+01
   0.530000E+03   0.417021E-05   0.755366E-05   0.374242E+00   0.483016E+01
   0.540000E+03   0.424122E-05   0.763427E-05   0.374302E+00   0.483016E+01
   0.550000E+03   0.430255E-05   0.769612E-05   0.374359E+00   0.483016E+01
   0.560000E+03   0.435375E-05   0.773849E-05   0.374416E+00   0.483016E+01
   0.570000E+03   0.439439E-05   0.776061E-05   0.374471E+00   0.483016E+01
   0.580000E+03   0.442407E-05   0.776172E-05   0.374524E+00   0.483016E+01
   0.590000E+03   0.444242E-05   0.774098E-05   0.374576E+00   0.483016E+01
   0.600000E+03   0.444908E-05   0.769758E-05   0.374627E+00   0.483016E+01
   0.610000E+03   0.444375E-05   0.763064E-05   0.374677E+00   0.483016E+01
   0.620000E+03   0.442615E-05   0.753932E-05   0.374726E+00   0.483016E+01
   0.630000E+03   0.439604E-05   0.742280E-05   0.374773E+00   0.483016E+01
   0.640000E+03   0.435324E-05   0.728027E-05   0.374820E+00   0.483016E+01
   0.650000E+03   0.429760E-05   0.711100E-05   0.374865E+00   0.483016E+01
   0.660000E+03   0.422905E-05   0.691432E-05   0.374909E+00   0.483016E+01
   0.670000E+03   0.414755E-05   0.668962E-05   0.374952E+00   0.483016E+01
   0.680000E+03   0.405313E-05   0.643638E-05   0.374994E+00   0.483016E+01
   0.690000E+03   0.394589E-05   0.615418E-05   0.375035E+00   0.483016E+01
   0.700000E+03   0.382596E-05   0.584268E-05   0.375075E+00   0.483016E+01
   0.710000E+03   0.369355E-05   0.550163E-05   0.375115E+00   0.483016E+01
   0.720000E+03   0.354893E-05   0.513091E-05   0.375153E+00   0.483016E+01
   0.730000E+03   0.339241E-05   0.473052E-05   0.375191E+00   0.483016E+01
   0.740000E+03   0.322436E-05   0.448774E-05   0.375227E+00   0.483016E+01
   0.750000E+03   0.304522E-05   0.454210E-05   0.375263E+00   0.483016E+01
   0.760000E+03   0.285546E-05   0.459505E-05   0.375298E+00   0.483016E+01
   0.770000E+03   0.265559E-05   0.464678E-05   0.375332E+00   0.483016E+01
   0.780000E+03   0.244620E-05   0.469750E-05   0.375366E+00   0.483016E+01
   0.790000E+03   0.222787E-05   0.474739E-05   0.375399E+00   0.483016E+01
   0.800000E+03   0.200124E-05   0.479666E-05   0.375431E+00   0.483016E+01
   0.810000E+03   0.176698E-05   0.484548E-05   0.375462E+00   0.483016E+01
   0.820000E+03   0.152577E-05   0.489404E-05   0.375493E+00   0.483016E+01
   0.830000E+03   0.127830E-05   0.494250E-05   0.375523E+00   0.483016E+01
   0.840000E+03   0.102529E-05   0.499102E-05   0.375553E+00   0.483016E+01
   0.850000E+03   0.767444E-06   0.503976E-05   0.375582E+00   0.483016E+01
   0.860000E+03   0.505495E-06   0.508886E-05   0.375610E+00   0.483016E+01
   0.870000E+03   0.240161E-06   0.513846E-05   0.375638E+00   0.483016E+01
   0.880000E+03  -0.278378E-07   0.518867E-05   0.375665E+00   0.483016E+01
   0.890000E+03  -0.297783E-06   0.527680E-05   0.375691E+00   0.483016E+01
   0.900000E+03  -0.568962E-06   0.538003E-05   0.375717E+00   0.483016E+01
   0.910000E+03  -0.840667E-06   0.548394E-05   0.375743E+00   0.483016E+01
   0.920000E+03  -0.111220E-05   0.558856E-05   0.375768E+00   0.483016E+01
   0.930000E+03  -0.138286E-05   0.569388E-05   0.375792E+00   0.483016E+01
   0.940000E+03  -0.165196E-05   0.579991E-05   0.375816E+00   0.483016E+01
   0.950000E+03  -0.191882E-05   0.590666E-05   0.375839E+00   0.483016E+01
   0.960000E+03  -0.218276E-05   0.601412E-05   0.375862E+00   0.483016E+01
   0.970000E+03  -0.244312E-05   0.612231E-05   0.375884E+00   0.483016E+01
   0.980000E+03  -0.269923E-05   0.623120E-05   0.375906E+00   0.483016E+01
   0.990000E+03  -0.295044E-05   0.634080E-05   0.375928E+00   0.483016E+01
   0.100000E+04  -0.319609E-05   0.645111E-05   0.375949E+00   0.483016E+01
   0.101000E+04  -0.343556E-05   0.656212E-05   0.375969E+00   0.483016E+01
   0.102000E+04  -0.366822E-05   0.667381E-05   0.375990E+00   0.483016E+01
   0.103000E+04  -0.389344E-05   0.678617E-05   0.376009E+00   0.483016E+01
   0.104000E+04  -0.411064E-05   0.689920E-05   0.376029E+00   0.483016E+01
   0.105000E+04  -0.431921E-05   0.701287E-05   0.376048E+00   0.483016E+01
   0.106000E+04  -0.451861E-05   0.712718E-05   0.376067E+00   0.483016E+01
   0.107000E+04  -0.470828E-05   0.724210E-05   0.376085E+00   0.483016E+01
   0.108000E+04  -0.488771E-05   0.735761E-05   0.376104E+00   0.483016E+01
   0.109000E+04  -0.505641E-05   0.747369E-05   0.376122E+00   0.483016E+01
   0.110000E+04  -0.521393E-05   0.759032E-05   0.376139E+00   0.483016E+01
   0.111000E+04  -0.535984E-05   0.770748E-05   0.376156E+00   0.483016E+01
   0.112000E+04  -0.549375E-05   0.782513E-05   0.376173E+00   0.483016E+01
   0.113000E+04  -0.561530E-05   0.794325E-05   0.376190E+00   0.483016E+01
   0.114000E+04  -0.572419E-05   0.806181E-05   0.376207E+00   0.483016E+01
   0.115000E+04  -0.582014E-05   0.818078E-05   0.376223E+00   0.483016E+01
   0.116000E+04  -0.590288E-05   0.830013E-05   0.376238E+00   0.483016E+01
   0.117000E+04  -0.597223E-05   0.841982E-05   0.376254E+00   0.483016E+01
   0.118000E+04  -0.602798E-05   0.853982E-05   0.376270E+00   0.483016E+01
   0.119000E+04  -0.607000E-05   0.866008E-05   0.376285E+00   0.483016E+01
   0.120000E+04  -0.609815E-05   0.878059E-05   0.376299E+00   0.483016E+01
   0.121000E+04  -0.611234E-05   0.890130E-05   0.376313E+00   0.483016E+01
   0.122000E+04  -0.611248E-05   0.902218E-05   0.376327E+00   0.483016E+01
   0.123000E+04  -0.609853E-05   0.914317E-05   0.376342E+00   0.483016E+01
   0.124000E+04  -0.607042E-05   0.926424E-05   0.376356E+00   0.483016E+01
   0.125000E+04  -0.602814E-05   0.938536E-05   0.376369E+00   0.483016E+01
   0.126000E+04  -0.597164E-05   0.950650E-05   0.376381E+00   0.483016E+01
   0.127000E+04  -0.590094E-05   0.962761E-05   0.376393E+00   0.483016E+01
   0.128000E+04  -0.581604E-05   0.974864E-05   0.376408E+00   0.483016E+01
   0.129000E+04  -0.571692E-05   0.986955E-05   0.376422E+00   0.483016E+01
   0.130000E+04  -0.560362E-05   0.999032E-05   0.376434E+00   0.483016E+01
   0.131000E+04  -0.547613E-05   0.101109E-04   0.376445E+00   0.483016E+01
   0.132000E+04  -0.533450E-05   0.102313E-04   0.376456E+00   0.483016E+01
   0.133000E+04  -0.517876E-05   0.103514E-04   0.376469E+00   0.483016E+01
   0.134000E+04  -0.500896E-05   0.104712E-04   0.376482E+00   0.483016E+01
   0.135000E+04  -0.482513E-05   0.105907E-04   0.376494E+00   0.483016E+01
   0.136000E+04  -0.462733E-05   0.107099E-04   0.376504E+00   0.483016E+01
   0.137000E+04  -0.441563E-05   0.108286E-04   0.376514E+00   0.483016E+01
   0.138000E+04  -0.419010E-05   0.109469E-04   0.376525E+00   0.483016E+01
   0.139000E+04  -0.395084E-05   0.110648E-04   0.376538E+00   0.483016E+01
   0.140000E+04  -0.369793E-05   0.111822E-04   0.376550E+00   0.483016E+01
   0.141000E+04  -0.343146E-05   0.112990E-04   0.376559E+00   0.483016E+01
   0.142000E+04  -0.315153E-05   0.114154E-04   0.376568E+00   0.483016E+01
   0.143000E+04  -0.285827E-05   0.115311E-04   0.376577E+00   0.483016E+01
   0.144000E+04  -0.255181E-05   0.116463E-04   0.376589E+00   0.483016E+01
   0.145000E+04  -0.223227E-05   0.117608E-04   0.376600E+00   0.483016E+01
   0.146000E+04  -0.189978E-05   0.118747E-04   0.376609E+00   0.483016E+01
   0.147000E+04  -0.155446E-05   0.119880E-04   0.376617E+00   0.483016E+01
   0.148000E+04  -0.119648E-05   0.121006E-04   0.376626E+00   0.483016E+01
   0.149000E+04  -0.825983E-06   0.122125E-04   0.376636E+00   0.483016E+01
   0.150000E+04  -0.443123E-06   0.123237E-04   0.376647E+00   0.483016E+01
   0.151000E+04  -0.480408E-07   0.124341E-04   0.376655E+00   0.483016E+01
   0.152000E+04   0.359113E-06   0.125439E-04   0.376663E+00   0.483016E+01
   0.153000E+04   0.778175E-06   0.126529E-04   0.376670E+00   0.483016E+01
   0.154000E+04   0.120897E-05   0.127611E-04   0.376679E+00   0.483016E+01
   0.155000E+04   0.165133E-05   0.128686E-04   0.376689E+00   0.483016E+01
   0.156000E+04   0.210509E-05   0.129753E-04   0.376698E+00   0.483016E+01
   0.157000E+04   0.257010E-05   0.130812E-04   0.376705E+00   0.483016E+01
   0.158000E+04   0.304618E-05   0.131864E-04   0.376711E+00   0.483016E+01
   0.159000E+04   0.353314E-05   0.132907E-04   0.376718E+00   0.483016E+01
   0.160000E+04   0.403079E-05   0.141520E-04   0.376728E+00   0.483016E+01
   0.161000E+04   0.453894E-05   0.158244E-04   0.376738E+00   0.483016E+01
   0.162000E+04   0.505727E-05   0.175194E-04   0.376752E+00   0.483016E+01
   0.163000E+04   0.558570E-05   0.192383E-04   0.376746E+00   0.483016E+01
   0.164000E+04   0.612406E-05   0.209804E-04   0.376752E+00   0.483016E+01
   0.165000E+04   0.667207E-05   0.227452E-04   0.376776E+00   0.483016E+01
   0.166000E+04   0.722957E-05   0.245321E-04   0.376780E+00   0.483016E+01
   0.167000E+04   0.779640E-05   0.263403E-04   0.376768E+00   0.483016E+01
   0.168000E+04   0.837238E-05   0.281695E-04   0.376765E+00   0.483016E+01
   0.169000E+04   0.895738E-05   0.300198E-04   0.376771E+00   0.483016E+01
   0.170000E+04   0.955120E-05   0.318914E-04   0.376790E+00   0.483016E+01
   0.171000E+04   0.101538E-04   0.337842E-04   0.376797E+00   0.483016E+01
   0.172000E+04   0.107651E-04   0.356986E-04   0.376788E+00   0.483016E+01
   0.173000E+04   0.113851E-04   0.376347E-04   0.376780E+00   0.483016E+01
   0.174000E+04   0.120138E-04   0.395933E-04   0.376781E+00   0.483016E+01
   0.175000E+04   0.126512E-04   0.415752E-04   0.376794E+00   0.483016E+01
   0.176000E+04   0.132974E-04   0.435810E-04   0.376801E+00   0.483016E+01
   0.177000E+04   0.139523E-04   0.456110E-04   0.376796E+00   0.483016E+01
   0.178000E+04   0.146160E-04   0.476654E-04   0.376787E+00   0.483016E+01
   0.179000E+04   0.152886E-04   0.497450E-04   0.376788E+00   0.483016E+01
   0.180000E+04   0.159700E-04   0.518503E-04   0.376800E+00   0.483016E+01
   0.181000E+04   0.166603E-04   0.539816E-04   0.376813E+00   0.483016E+01
   0.182000E+04   0.173595E-04   0.561389E-04   0.376811E+00   0.483016E+01
   0.183000E+04   0.180676E-04   0.583219E-04   0.376800E+00   0.483016E+01
   0.184000E+04   0.187846E-04   0.605305E-04   0.376798E+00   0.483016E+01
   0.185000E+04   0.195102E-04   0.627648E-04   0.376804E+00   0.483016E+01
   0.186000E+04   0.202446E-04   0.650244E-04   0.376817E+00   0.483016E+01
   0.187000E+04   0.209875E-04   0.673087E-04   0.376818E+00   0.483016E+01
   0.188000E+04   0.217387E-04   0.696166E-04   0.376810E+00   0.483016E+01
   0.189000E+04   0.224981E-04   0.719473E-04   0.376806E+00   0.483016E+01
   0.190000E+04   0.232656E-04   0.743004E-04   0.376812E+00   0.483016E+01
   0.191000E+04   0.240408E-04   0.766748E-04   0.376827E+00   0.483016E+01
   0.192000E+04   0.248235E-04   0.790697E-04   0.376833E+00   0.483016E+01
   0.193000E+04   0.256135E-04   0.814837E-04   0.376826E+00   0.483016E+01
   0.194000E+04   0.264105E-04   0.839156E-04   0.376819E+00   0.483016E+01
   0.195000E+04   0.272142E-04   0.863643E-04   0.376819E+00   0.483016E+01
   0.196000E+04   0.280242E-04   0.888290E-04   0.376831E+00   0.483016E+01
   0.197000E+04   0.288404E-04   0.913085E-04   0.376840E+00   0.483016E+01
   0.198000E+04   0.296623E-04   0.938012E-04   0.376837E+00   0.483016E+01
   0.199000E+04   0.304895E-04   0.963057E-04   0.376829E+00   0.483016E+01
   0.200000E+04   0.313218E-04   0.988209E-04   0.376830E+00   0.483016E+01
   0.201000E+04   0.321587E-04   0.101346E-03   0.376841E+00   0.483016E+01
   0.202000E+04   0.330000E-04   0.103880E-03   0.376854E+00   0.483016E+01
   0.203000E+04   0.338453E-04   0.106421E-03   0.376854E+00   0.483016E+01
   0.204000E+04   0.346943E-04   0.108968E-03   0.376844E+00   0.483016E+01
   0.205000E+04   0.355466E-04   0.111520E-03   0.376841E+00   0.483016E+01
   0.206000E+04   0.364018E-04   0.114076E-03   0.376846E+00   0.483016E+01
   0.207000E+04   0.372597E-04   0.116635E-03   0.376859E+00   0.483016E+01
   0.208000E+04   0.381200E-04   0.119196E-03   0.376863E+00   0.483016E+01
   0.209000E+04   0.389822E-04   0.121758E-03   0.376857E+00   0.483016E+01
   0.210000E+04   0.398460E-04   0.124320E-03   0.376852E+00   0.483016E+01
   0.211000E+04   0.407112E-04   0.126881E-03   0.376857E+00   0.483016E+01
   0.212000E+04   0.415775E-04   0.129441E-03   0.376871E+00   0.483016E+01
   0.213000E+04   0.424446E-04   0.131998E-03   0.376879E+00   0.483016E+01
   0.214000E+04   0.433122E-04   0.134552E-03   0.376874E+00   0.483016E+01
   0.215000E+04   0.441800E-04   0.137102E-03   0.376865E+00   0.483016E+01
   0.216000E+04   0.450478E-04   0.139647E-03   0.376864E+00   0.483016E+01
   0.217000E+04   0.459153E-04   0.142187E-03   0.376874E+00   0.483016E+01
   0.218000E+04   0.467823E-04   0.144722E-03   0.376885E+00   0.483016E+01
   0.219000E+04   0.476486E-04   0.147250E-03   0.376886E+00   0.483016E+01
   0.220000E+04   0.485139E-04   0.149770E-03   0.376878E+00   0.483016E+01
   0.221000E+04   0.493780E-04   0.152283E-03   0.376877E+00   0.483016E+01
   0.222000E+04   0.502407E-04   0.154788E-03   0.376884E+00   0.483016E+01
   0.223000E+04   0.511018E-04   0.157285E-03   0.376898E+00   0.483016E+01
   0.224000E+04   0.519613E-04   0.159773E-03   0.376902E+00   0.483016E+01
   0.225000E+04   0.528188E-04   0.162251E-03   0.376893E+00   0.483016E+01
   0.226000E+04   0.536743E-04   0.164720E-03   0.376886E+00   0.483016E+01
   0.227000E+04   0.545275E-04   0.167178E-03   0.376888E+00   0.483016E+01
   0.228000E+04   0.553783E-04   0.169627E-03   0.376901E+00   0.483016E+01
   0.229000E+04   0.562267E-04   0.172065E-03   0.376911E+00   0.483016E+01
   0.230000E+04   0.570725E-04   0.174492E-03   0.376907E+00   0.483016E+01
   0.231000E+04   0.579154E-04   0.176908E-03   0.376900E+00   0.483016E+01
   0.232000E+04   0.587554E-04   0.179312E-03   0.376901E+00   0.483016E+01
   0.233000E+04   0.595925E-04   0.181705E-03   0.376912E+00   0.483016E+01
   0.234000E+04   0.604264E-04   0.184086E-03   0.376923E+00   0.483016E+01
   0.235000E+04   0.612573E-04   0.186456E-03   0.376921E+00   0.483016E+01
   0.236000E+04   0.620849E-04   0.188813E-03   0.376911E+00   0.483016E+01
   0.237000E+04   0.629090E-04   0.191158E-03   0.376907E+00   0.483016E+01
   0.238000E+04   0.637298E-04   0.193490E-03   0.376913E+00   0.483016E+01
   0.239000E+04   0.645471E-04   0.195810E-03   0.376928E+00   0.483016E+01
   0.240000E+04   0.653608E-04   0.198118E-03   0.376933E+00   0.483016E+01
   0.241000E+04   0.661710E-04   0.200413E-03   0.376927E+00   0.483016E+01
   0.242000E+04   0.669774E-04   0.202694E-03   0.376921E+00   0.483016E+01
   0.243000E+04   0.677800E-04   0.204963E-03   0.376923E+00   0.483016E+01
   0.244000E+04   0.685788E-04   0.207219E-03   0.376937E+00   0.483016E+01
   0.245000E+04   0.693739E-04   0.209462E-03   0.376944E+00   0.483016E+01
   0.246000E+04   0.701652E-04   0.211692E-03   0.376939E+00   0.483016E+01
   0.247000E+04   0.709525E-04   0.213909E-03   0.376928E+00   0.483016E+01
   0.248000E+04   0.717359E-04   0.216112E-03   0.376927E+00   0.483016E+01
   0.249000E+04   0.725153E-04   0.218303E-03   0.376938E+00   0.483016E+01
   0.250000E+04   0.732907E-04   0.220480E-03   0.376951E+00   0.483016E+01
   0.251000E+04   0.740622E-04   0.222644E-03   0.376953E+00   0.483016E+01
   0.252000E+04   0.748296E-04   0.224795E-03   0.376944E+00   0.483016E+01
   0.253000E+04   0.755928E-04   0.226932E-03   0.376940E+00   0.483016E+01
   0.254000E+04   0.763520E-04   0.229056E-03   0.376945E+00   0.483016E+01
   0.255000E+04   0.771071E-04   0.231167E-03   0.376958E+00   0.483016E+01
   0.256000E+04   0.778581E-04   0.233265E-03   0.376962E+00   0.483016E+01
   0.257000E+04   0.786051E-04   0.235349E-03   0.376954E+00   0.483016E+01
   0.258000E+04   0.793479E-04   0.237420E-03   0.376945E+00   0.483016E+01
   0.259000E+04   0.800866E-04   0.239478E-03   0.376947E+00   0.483016E+01
   0.260000E+04   0.808210E-04   0.241522E-03   0.376961E+00   0.483016E+01
   0.261000E+04   0.815515E-04   0.243554E-03   0.376972E+00   0.483016E+01
   0.262000E+04   0.822778E-04   0.245572E-03   0.376970E+00   0.483016E+01
   0.263000E+04   0.830000E-04   0.247578E-03   0.376960E+00   0.483016E+01
   0.264000E+04   0.837179E-04   0.249569E-03   0.376958E+00   0.483016E+01
   0.265000E+04   0.844315E-04   0.251548E-03   0.376965E+00   0.483016E+01
   0.266000E+04   0.851412E-04   0.253513E-03   0.376977E+00   0.483016E+01
   0.267000E+04   0.858467E-04   0.255466E-03   0.376978E+00   0.483016E+01
   0.268000E+04   0.865482E-04   0.257406E-03   0.376968E+00   0.483016E+01
   0.269000E+04   0.872455E-04   0.259332E-03   0.376963E+00   0.483016E+01
   0.270000E+04   0.879385E-04   0.261246E-03   0.376967E+00   0.483016E+01
   0.271000E+04   0.886275E-04   0.263146E-03   0.376981E+00   0.483016E+01
   0.272000E+04   0.893124E-04   0.265035E-03   0.376990E+00   0.483016E+01
   0.273000E+04   0.899933E-04   0.266910E-03   0.376985E+00   0.483016E+01
   0.274000E+04   0.906699E-04   0.268772E-03   0.376975E+00   0.483016E+01
   0.275000E+04   0.913423E-04   0.270621E-03   0.376974E+00   0.483016E+01
   0.276000E+04   0.920107E-04   0.272458E-03   0.376982E+00   0.483016E+01
   0.277000E+04   0.926751E-04   0.274282E-03   0.376992E+00   0.483016E+01
   0.278000E+04   0.933357E-04   0.276094E-03   0.376991E+00   0.483016E+01
   0.279000E+04   0.939921E-04   0.277893E-03   0.376983E+00   0.483016E+01
   0.280000E+04   0.946443E-04   0.279680E-03   0.376980E+00   0.483016E+01
   0.281000E+04   0.952924E-04   0.281453E-03   0.376984E+00   0.483016E+01
   0.282000E+04   0.959365E-04   0.283214E-03   0.376999E+00   0.483016E+01
   0.283000E+04   0.965766E-04   0.284963E-03   0.377005E+00   0.483016E+01
   0.284000E+04   0.972128E-04   0.286700E-03   0.376999E+00   0.483016E+01
   0.285000E+04   0.978449E-04   0.288424E-03   0.376989E+00   0.483016E+01
   0.286000E+04   0.984729E-04   0.290135E-03   0.376988E+00   0.483016E+01
   0.287000E+04   0.990970E-04   0.291835E-03   0.376997E+00   0.483016E+01
   0.288000E+04   0.997172E-04   0.293522E-03   0.377006E+00   0.483016E+01
   0.289000E+04   0.100334E-03   0.295197E-03   0.377006E+00   0.483016E+01
   0.290000E+04   0.100946E-03   0.296860E-03   0.376998E+00   0.483016E+01
   0.291000E+04   0.101554E-03   0.298509E-03   0.376995E+00   0.483016E+01
   0.292000E+04   0.102158E-03   0.300146E-03   0.377001E+00   0.483016E+01
   0.293000E+04   0.102758E-03   0.301772E-03   0.377014E+00   0.483016E+01
   0.294000E+04   0.103355E-03   0.303386E-03   0.377018E+00   0.483016E+01
   0.295000E+04   0.103948E-03   0.304987E-03   0.377011E+00   0.483016E+01
   0.296000E+04   0.104536E-03   0.306576E-03   0.377002E+00   0.483016E+01
   0.297000E+04   0.105121E-03   0.308152E-03   0.377001E+00   0.483016E+01
   0.298000E+04   0.105701E-03   0.309715E-03   0.377012E+00   0.483016E+01
   0.299000E+04   0.106278E-03   0.311265E-03   0.377022E+00   0.483016E+01
   0.300000E+04   0.106851E-03   0.312803E-03   0.377022E+00   0.483016E+01
   0.301000E+04   0.107420E-03   0.314328E-03   0.377013E+00   0.483016E+01
   0.302000E+04   0.107984E-03   0.315840E-03   0.377011E+00   0.483016E+01
   0.303000E+04   0.108545E-03   0.317340E-03   0.377016E+00   0.483016E+01
   0.304000E+04   0.109102E-03   0.318827E-03   0.377028E+00   0.483016E+01
   0.305000E+04   0.109656E-03   0.320302E-03   0.377032E+00   0.483016E+01
   0.306000E+04   0.110205E-03   0.321763E-03   0.377025E+00   0.483016E+01
   0.307000E+04   0.110750E-03   0.323211E-03   0.377016E+00   0.483016E+01
   0.308000E+04   0.111292E-03   0.324647E-03   0.377015E+00   0.483016E+01
   0.309000E+04   0.111830E-03   0.326070E-03   0.377026E+00   0.483016E+01
   0.310000E+04   0.112364E-03   0.327482E-03   0.377037E+00   0.483016E+01
   0.311000E+04   0.112895E-03   0.328882E-03   0.377035E+00   0.483016E+01
   0.312000E+04   0.113422E-03   0.330269E-03   0.377027E+00   0.483016E+01
   0.313000E+04   0.113945E-03   0.331644E-03   0.377024E+00   0.483016E+01
   0.314000E+04   0.114464E-03   0.333006E-03   0.377030E+00   0.483016E+01
   0.315000E+04   0.114980E-03   0.334355E-03   0.377043E+00   0.483016E+01
   0.316000E+04   0.115492E-03   0.335693E-03   0.377046E+00   0.483016E+01
   0.317000E+04   0.116000E-03   0.337019E-03   0.377037E+00   0.483016E+01
   0.318000E+04   0.116505E-03   0.338333E-03   0.377028E+00   0.483016E+01
   0.319000E+04   0.117006E-03   0.339636E-03   0.377028E+00   0.483016E+01
   0.320000E+04   0.117503E-03   0.340928E-03   0.377041E+00   0.483016E+01
   0.321000E+04   0.117998E-03   0.342209E-03   0.377050E+00   0.483016E+01
   0.322000E+04   0.118489E-03   0.343480E-03   0.377050E+00   0.483016E+01
   0.323000E+04   0.118976E-03   0.344739E-03   0.377041E+00   0.483016E+01
   0.324000E+04   0.119460E-03   0.345987E-03   0.377037E+00   0.483016E+01
   0.325000E+04   0.119940E-03   0.347225E-03   0.377041E+00   0.483016E+01
   0.326000E+04   0.120417E-03   0.348454E-03   0.377053E+00   0.483016E+01
   0.327000E+04   0.120892E-03   0.349675E-03   0.377055E+00   0.483016E+01
   0.328000E+04   0.121363E-03   0.350885E-03   0.377046E+00   0.483016E+01
   0.329000E+04   0.121830E-03   0.352086E-03   0.377038E+00   0.483016E+01
   0.330000E+04   0.122294E-03   0.353277E-03   0.377040E+00   0.483016E+01
   0.331000E+04   0.122755E-03   0.354459E-03   0.377052E+00   0.483016E+01
   0.332000E+04   0.123213E-03   0.355632E-03   0.377063E+00   0.483016E+01
   0.333000E+04   0.123668E-03   0.356796E-03   0.377061E+00   0.483016E+01
   0.334000E+04   0.124119E-03   0.357951E-03   0.377051E+00   0.483016E+01
   0.335000E+04   0.124567E-03   0.359096E-03   0.377047E+00   0.483016E+01
   0.336000E+04   0.125012E-03   0.360234E-03   0.377050E+00   0.483016E+01
   0.337000E+04   0.125454E-03   0.361364E-03   0.377060E+00   0.483016E+01
   0.338000E+04   0.125894E-03   0.362486E-03   0.377063E+00   0.483016E+01
   0.339000E+04   0.126330E-03   0.363599E-03   0.377057E+00   0.483016E+01
   0.340000E+04   0.126763E-03   0.364704E-03   0.377050E+00   0.483016E+01
   0.341000E+04   0.127193E-03   0.365801E-03   0.377050E+00   0.483016E+01
   0.342000E+04   0.127621E-03   0.366890E-03   0.377062E+00   0.483016E+01
   0.343000E+04   0.128046E-03   0.367973E-03   0.377071E+00   0.483016E+01
   0.344000E+04   0.128468E-03   0.369049E-03   0.377069E+00   0.483016E+01
   0.345000E+04   0.128887E-03   0.370117E-03   0.377058E+00   0.483016E+01
   0.346000E+04   0.129303E-03   0.371177E-03   0.377054E+00   0.483016E+01
   0.347000E+04   0.129716E-03   0.372229E-03   0.377057E+00   0.483016E+01
   0.348000E+04   0.130126E-03   0.373273E-03   0.377068E+00   0.483016E+01
   0.349000E+04   0.130534E-03   0.374311E-03   0.377072E+00   0.483016E+01
   0.350000E+04   0.130939E-03   0.375340E-03   0.377068E+00   0.483016E+01
   0.351000E+04   0.131341E-03   0.376363E-03   0.377060E+00   0.483016E+01
   0.352000E+04   0.131740E-03   0.377377E-03   0.377060E+00   0.483016E+01
   0.353000E+04   0.132136E-03   0.378385E-03   0.377070E+00   0.483016E+01
   0.354000E+04   0.132530E-03   0.379387E-03   0.377078E+00   0.483016E+01
   0.355000E+04   0.132921E-03   0.380381E-03   0.377077E+00   0.483016E+01
   0.356000E+04   0.133310E-03   0.381368E-03   0.377068E+00   0.483016E+01
   0.357000E+04   0.133695E-03   0.382347E-03   0.377061E+00   0.483016E+01
   0.358000E+04   0.134078E-03   0.383319E-03   0.377062E+00   0.483016E+01
   0.359000E+04   0.134459E-03   0.384285E-03   0.377074E+00   0.483016E+01
   0.360000E+04   0.134838E-03   0.385246E-03   0.377081E+00   0.483016E+01
   0.361000E+04   0.135214E-03   0.386200E-03   0.377076E+00   0.483016E+01
   0.362000E+04   0.135587E-03   0.387147E-03   0.377068E+00   0.483016E+01
   0.363000E+04   0.135958E-03   0.388086E-03   0.377067E+00   0.483016E+01
   0.364000E+04   0.136325E-03   0.389019E-03   0.377076E+00   0.483016E+01
   0.365000E+04   0.136690E-03   0.389944E-03   0.377086E+00   0.483016E+01
   0.366000E+04   0.137053E-03   0.390863E-03   0.377085E+00   0.483016E+01
   0.367000E+04   0.137414E-03   0.391775E-03   0.377075E+00   0.483016E+01
   0.368000E+04   0.137771E-03   0.392680E-03   0.377068E+00   0.483016E+01
   0.369000E+04   0.138126E-03   0.393579E-03   0.377069E+00   0.483016E+01
   0.370000E+04   0.138479E-03   0.394472E-03   0.377082E+00   0.483016E+01
   0.371000E+04   0.138830E-03   0.395359E-03   0.377089E+00   0.483016E+01
   0.372000E+04   0.139178E-03   0.396239E-03   0.377086E+00   0.483016E+01
   0.373000E+04   0.139524E-03   0.397112E-03   0.377077E+00   0.483016E+01
   0.374000E+04   0.139867E-03   0.397978E-03   0.377074E+00   0.483016E+01
   0.375000E+04   0.140207E-03   0.398839E-03   0.377081E+00   0.483016E+01
   0.376000E+04   0.140546E-03   0.399694E-03   0.377091E+00   0.483016E+01
   0.377000E+04   0.140883E-03   0.400545E-03   0.377090E+00   0.483016E+01
   0.378000E+04   0.141218E-03   0.401389E-03   0.377080E+00   0.483016E+01
   0.379000E+04   0.141550E-03   0.402226E-03   0.377073E+00   0.483016E+01
   0.380000E+04   0.141879E-03   0.403057E-03   0.377076E+00   0.483016E+01
   0.381000E+04   0.142206E-03   0.403882E-03   0.377089E+00   0.483016E+01
   0.382000E+04   0.142531E-03   0.404701E-03   0.377097E+00   0.483016E+01
   0.383000E+04   0.142854E-03   0.405514E-03   0.377094E+00   0.483016E+01
   0.384000E+04   0.143174E-03   0.406321E-03   0.377084E+00   0.483016E+01
   0.385000E+04   0.143492E-03   0.407122E-03   0.377081E+00   0.483016E+01
   0.386000E+04   0.143808E-03   0.407916E-03   0.377086E+00   0.483016E+01
   0.387000E+04   0.144122E-03   0.408706E-03   0.377095E+00   0.483016E+01
   0.388000E+04   0.144434E-03   0.409491E-03   0.377096E+00   0.483016E+01
   0.389000E+04   0.144744E-03   0.410269E-03   0.377088E+00   0.483016E+01
   0.390000E+04   0.145051E-03   0.411041E-03   0.377082E+00   0.483016E+01
   0.391000E+04   0.145356E-03   0.411807E-03   0.377083E+00   0.483016E+01
   0.392000E+04   0.145659E-03   0.412569E-03   0.377094E+00   0.483016E+01
   0.393000E+04   0.145961E-03   0.413327E-03   0.377103E+00   0.483016E+01