variables="x","h","c"
zone i=     42,T= "1dxhc;t= 0.1500E+03y,z:   1   1"
    0.00000E+00    0.50000E+00    0.00000E+00
    0.24878E+01    0.49600E+00    0.52023E-21
    0.49756E+01    0.49081E+00    0.26706E-20
    0.74634E+01    0.48826E+00    0.72228E-20
    0.99512E+01    0.48328E+00    0.38892E-19
    0.12439E+02    0.48060E+00    0.23311E-18
    0.14927E+02    0.47710E+00    0.10311E-17
    0.17415E+02    0.47145E+00    0.38764E-17
    0.19902E+02    0.46706E+00    0.22303E-16
    0.22390E+02    0.46354E+00    0.72884E-16
    0.24878E+02    0.45617E+00    0.21510E-15
    0.27366E+02    0.45056E+00    0.65834E-15
    0.29854E+02    0.44527E+00    0.17536E-14
    0.32341E+02    0.43921E+00    0.35573E-14
    0.34829E+02    0.42813E+00    0.14920E-13
    0.37317E+02    0.41788E+00    0.36072E-13
    0.39805E+02    0.40596E+00    0.86926E-13
    0.42293E+02    0.39978E+00    0.20692E-12
    0.44780E+02    0.39349E+00    0.47961E-12
    0.47268E+02    0.38784E+00    0.19402E-11
    0.49756E+02    0.38388E+00    0.60720E-11
    0.52244E+02    0.37988E+00    0.12446E-10
    0.54732E+02    0.37640E+00    0.48317E-10
    0.57220E+02    0.37249E+00    0.19075E-09
    0.59707E+02    0.36759E+00    0.10178E-08
    0.62195E+02    0.36382E+00    0.58053E-08
    0.64683E+02    0.36111E+00    0.20861E-07
    0.67171E+02    0.35510E+00    0.99311E-07
    0.69659E+02    0.34950E+00    0.50946E-06
    0.72146E+02    0.34531E+00    0.27160E-05
    0.74634E+02    0.33975E+00    0.21545E-04
    0.77122E+02    0.33397E+00    0.13614E-03
    0.79610E+02    0.32597E+00    0.12644E-02
    0.82098E+02    0.32206E+00    0.92668E-02
    0.84585E+02    0.32362E+00    0.43296E-01
    0.87073E+02    0.33047E+00    0.27388E+00
    0.89561E+02    0.33819E+00    0.51952E+00
    0.92049E+02    0.34868E+00    0.73675E+00
    0.94537E+02    0.36028E+00    0.79906E+00
    0.97024E+02    0.38198E+00    0.84778E+00
    0.99512E+02    0.39734E+00    0.90605E+00
    0.10200E+03    0.40017E+00    0.10000E+01
zone i=     42,T= "1dxhc;t= 0.1500E+03y,z:   1  12"
    0.00000E+00    0.50000E+00    0.00000E+00
    0.24878E+01    0.49827E+00    0.46154E-24
    0.49756E+01    0.49416E+00    0.30003E-23
    0.74634E+01    0.49011E+00    0.31437E-22
    0.99512E+01    0.48655E+00    0.24850E-21
    0.12439E+02    0.48319E+00    0.44130E-21
    0.14927E+02    0.48051E+00    0.52384E-21
    0.17415E+02    0.47480E+00    0.40347E-20
    0.19902E+02    0.46409E+00    0.50533E-19
    0.22390E+02    0.45885E+00    0.33357E-18
    0.24878E+02    0.45099E+00    0.25667E-17
    0.27366E+02    0.44637E+00    0.16919E-16
    0.29854E+02    0.43928E+00    0.90973E-16
    0.32341E+02    0.43031E+00    0.37133E-15
    0.34829E+02    0.42295E+00    0.96648E-15
    0.37317E+02    0.41048E+00    0.37638E-14
    0.39805E+02    0.40463E+00    0.15149E-13
    0.42293E+02    0.39830E+00    0.87217E-13
    0.44780E+02    0.39343E+00    0.31781E-12
    0.47268E+02    0.38797E+00    0.89061E-12
    0.49756E+02    0.38394E+00    0.28850E-11
    0.52244E+02    0.37922E+00    0.75879E-11
    0.54732E+02    0.37566E+00    0.39220E-10
    0.57220E+02    0.37278E+00    0.61828E-10
    0.59707E+02    0.36747E+00    0.34359E-09
    0.62195E+02    0.36216E+00    0.14357E-08
    0.64683E+02    0.35737E+00    0.53258E-08
    0.67171E+02    0.35340E+00    0.73678E-08
    0.69659E+02    0.34699E+00    0.31125E-07
    0.72146E+02    0.34206E+00    0.33733E-06
    0.74634E+02    0.33771E+00    0.95582E-06
    0.77122E+02    0.33259E+00    0.16775E-05
    0.79610E+02    0.32451E+00    0.29597E-05
    0.82098E+02    0.31732E+00    0.11014E-04
    0.84585E+02    0.31148E+00    0.36291E-04
    0.87073E+02    0.30087E+00    0.27755E-04
    0.89561E+02    0.28902E+00   -0.49524E-03
    0.92049E+02    0.26982E+00   -0.55789E-03
    0.94537E+02    0.24422E+00    0.30496E-01
    0.97024E+02    0.21510E+00    0.14009E+00
    0.99512E+02    0.18917E+00    0.45587E+00
    0.10200E+03    0.16008E+00    0.10000E+01
zone i=     42,T= "1dxhc;t= 0.1500E+03y,z:   1  22"
    0.00000E+00    0.49844E+00   -0.30112E-16
    0.24878E+01    0.49258E+00   -0.13116E-15
    0.49756E+01    0.48538E+00   -0.82234E-15
    0.74634E+01    0.48031E+00   -0.41245E-14
    0.99512E+01    0.47481E+00   -0.14176E-13
    0.12439E+02    0.46765E+00   -0.67971E-13
    0.14927E+02    0.45985E+00   -0.17429E-12
    0.17415E+02    0.44849E+00   -0.58211E-12
    0.19902E+02    0.44131E+00   -0.10979E-11
    0.22390E+02    0.43505E+00   -0.34742E-11
    0.24878E+02    0.42206E+00   -0.97438E-11
    0.27366E+02    0.40265E+00   -0.30194E-10
    0.29854E+02    0.38369E+00   -0.98681E-10
    0.32341E+02    0.35356E+00   -0.35593E-09
    0.34829E+02    0.33700E+00   -0.97165E-09
    0.37317E+02    0.31650E+00   -0.30558E-08
    0.39805E+02    0.30188E+00   -0.98181E-08
    0.42293E+02    0.29473E+00   -0.29778E-07
    0.44780E+02    0.28842E+00   -0.62966E-07
    0.47268E+02    0.28335E+00   -0.13916E-06
    0.49756E+02    0.27864E+00   -0.21847E-06
    0.52244E+02    0.27167E+00   -0.66952E-06
    0.54732E+02    0.26881E+00   -0.11026E-05
    0.57220E+02    0.26398E+00   -0.21649E-05
    0.59707E+02    0.25697E+00   -0.60254E-05
    0.62195E+02    0.25091E+00   -0.10902E-04
    0.64683E+02    0.23967E+00   -0.25343E-04
    0.67171E+02    0.23117E+00   -0.36281E-04
    0.69659E+02    0.21402E+00   -0.58396E-04
    0.72146E+02    0.20006E+00   -0.73934E-04
    0.74634E+02    0.18207E+00   -0.96446E-04
    0.77122E+02    0.17065E+00   -0.85938E-04
    0.79610E+02    0.16142E+00    0.29869E-04
    0.82098E+02    0.15162E+00    0.51634E-04
    0.84585E+02    0.14234E+00   -0.21128E-04
    0.87073E+02    0.13273E+00   -0.51913E-04
    0.89561E+02    0.11725E+00   -0.21759E-03
    0.92049E+02    0.94222E-01   -0.28176E-03
    0.94537E+02    0.78614E-01   -0.38160E-03
    0.97024E+02    0.62870E-01   -0.95316E-03
    0.99512E+02    0.40452E-01    0.30655E-03
    0.10200E+03    0.68495E-02    0.25890E-02
zone i=     42,T= "1dxhc;t= 0.3000E+03y,z:   1   1"
    0.00000E+00    0.50000E+00    0.00000E+00
    0.24878E+01    0.49601E+00    0.10638E-17
    0.49756E+01    0.49081E+00    0.46237E-17
    0.74634E+01    0.48827E+00    0.10851E-16
    0.99512E+01    0.48329E+00    0.49546E-16
    0.12439E+02    0.48061E+00    0.23686E-15
    0.14927E+02    0.47712E+00    0.87788E-15
    0.17415E+02    0.47147E+00    0.28062E-14
    0.19902E+02    0.46708E+00    0.13559E-13
    0.22390E+02    0.46357E+00    0.37819E-13
    0.24878E+02    0.45621E+00    0.97647E-13
    0.27366E+02    0.45060E+00    0.26089E-12
    0.29854E+02    0.44531E+00    0.61247E-12
    0.32341E+02    0.43926E+00    0.11196E-11
    0.34829E+02    0.42819E+00    0.40469E-11
    0.37317E+02    0.41795E+00    0.84334E-11
    0.39805E+02    0.40603E+00    0.18181E-10
    0.42293E+02    0.39986E+00    0.38473E-10
    0.44780E+02    0.39358E+00    0.76029E-10
    0.47268E+02    0.38792E+00    0.25184E-09
    0.49756E+02    0.38397E+00    0.64441E-09
    0.52244E+02    0.37996E+00    0.12657E-08
    0.54732E+02    0.37649E+00    0.42104E-08
    0.57220E+02    0.37258E+00    0.13213E-07
    0.59707E+02    0.36768E+00    0.53426E-07
    0.62195E+02    0.36391E+00    0.21795E-06
    0.64683E+02    0.36120E+00    0.72480E-06
    0.67171E+02    0.35521E+00    0.31544E-05
    0.69659E+02    0.34965E+00    0.13882E-04
    0.72146E+02    0.34558E+00    0.61586E-04
    0.74634E+02    0.34047E+00    0.37879E-03
    0.77122E+02    0.33565E+00    0.18098E-02
    0.79610E+02    0.33203E+00   -0.14244E-02
    0.82098E+02    0.33629E+00    0.12656E+00
    0.84585E+02    0.34489E+00    0.34183E+00
    0.87073E+02    0.35387E+00    0.56332E+00
    0.89561E+02    0.36077E+00    0.73587E+00
    0.92049E+02    0.36901E+00    0.86422E+00
    0.94537E+02    0.37757E+00    0.88572E+00
    0.97024E+02    0.39233E+00    0.90444E+00
    0.99512E+02    0.40263E+00    0.95263E+00
    0.10200E+03    0.40017E+00    0.10000E+01
zone i=     42,T= "1dxhc;t= 0.3000E+03y,z:   1  12"
    0.00000E+00    0.50000E+00    0.00000E+00
    0.24878E+01    0.49827E+00   -0.76676E-21
    0.49756E+01    0.49416E+00   -0.45351E-20
    0.74634E+01    0.49012E+00   -0.35732E-19
    0.99512E+01    0.48656E+00   -0.28632E-18
    0.12439E+02    0.48320E+00   -0.50633E-18
    0.14927E+02    0.48052E+00   -0.36420E-18
    0.17415E+02    0.47482E+00   -0.93266E-18
    0.19902E+02    0.46411E+00   -0.11924E-16
    0.22390E+02    0.45888E+00   -0.93805E-16
    0.24878E+02    0.45102E+00   -0.85982E-15
    0.27366E+02    0.44641E+00   -0.73111E-14
    0.29854E+02    0.43933E+00   -0.55153E-13
    0.32341E+02    0.43036E+00   -0.23358E-12
    0.34829E+02    0.42301E+00   -0.50112E-12
    0.37317E+02    0.41055E+00   -0.92510E-12
    0.39805E+02    0.40470E+00   -0.84266E-12
    0.42293E+02    0.39837E+00   -0.14207E-11
    0.44780E+02    0.39351E+00   -0.54365E-11
    0.47268E+02    0.38805E+00   -0.11051E-10
    0.49756E+02    0.38402E+00    0.27998E-10
    0.52244E+02    0.37931E+00    0.21275E-09
    0.54732E+02    0.37575E+00    0.14218E-08
    0.57220E+02    0.37287E+00    0.22906E-08
    0.59707E+02    0.36755E+00    0.10417E-07
    0.62195E+02    0.36223E+00    0.34587E-07
    0.64683E+02    0.35743E+00    0.10293E-06
    0.67171E+02    0.35344E+00    0.95289E-07
    0.69659E+02    0.34697E+00    0.25268E-06
    0.72146E+02    0.34196E+00    0.28914E-05
    0.74634E+02    0.33745E+00    0.79648E-05
    0.77122E+02    0.33207E+00    0.13748E-04
    0.79610E+02    0.32317E+00    0.24043E-04
    0.82098E+02    0.31468E+00    0.96333E-04
    0.84585E+02    0.30750E+00    0.24230E-03
    0.87073E+02    0.29438E+00    0.12876E-03
    0.89561E+02    0.28052E+00   -0.21286E-03
    0.92049E+02    0.26016E+00    0.65669E-02
    0.94537E+02    0.23521E+00    0.49955E-01
    0.97024E+02    0.20835E+00    0.16116E+00
    0.99512E+02    0.18532E+00    0.47364E+00
    0.10200E+03    0.16008E+00    0.10000E+01
zone i=     42,T= "1dxhc;t= 0.3000E+03y,z:   1  22"
    0.00000E+00    0.49844E+00   -0.28259E-13
    0.24878E+01    0.49257E+00   -0.81048E-13
    0.49756E+01    0.48537E+00   -0.37112E-12
    0.74634E+01    0.48030E+00   -0.12485E-11
    0.99512E+01    0.47480E+00   -0.32565E-11
    0.12439E+02    0.46763E+00   -0.11294E-10
    0.14927E+02    0.45984E+00   -0.22190E-10
    0.17415E+02    0.44848E+00   -0.59675E-10
    0.19902E+02    0.44129E+00   -0.99464E-10
    0.22390E+02    0.43503E+00   -0.26599E-09
    0.24878E+02    0.42204E+00   -0.60999E-09
    0.27366E+02    0.40262E+00   -0.14993E-08
    0.29854E+02    0.38366E+00   -0.37272E-08
    0.32341E+02    0.35352E+00   -0.98943E-08
    0.34829E+02    0.33695E+00   -0.21602E-07
    0.37317E+02    0.31644E+00   -0.52766E-07
    0.39805E+02    0.30182E+00   -0.12213E-06
    0.42293E+02    0.29467E+00   -0.27328E-06
    0.44780E+02    0.28836E+00   -0.48866E-06
    0.47268E+02    0.28329E+00   -0.92688E-06
    0.49756E+02    0.27858E+00   -0.13631E-05
    0.52244E+02    0.27160E+00   -0.34178E-05
    0.54732E+02    0.26874E+00   -0.49806E-05
    0.57220E+02    0.26391E+00   -0.84226E-05
    0.59707E+02    0.25689E+00   -0.17820E-04
    0.62195E+02    0.25083E+00   -0.27136E-04
    0.64683E+02    0.23958E+00   -0.51501E-04
    0.67171E+02    0.23108E+00   -0.68404E-04
    0.69659E+02    0.21393E+00   -0.10426E-03
    0.72146E+02    0.19996E+00   -0.13135E-03
    0.74634E+02    0.18196E+00   -0.17418E-03
    0.77122E+02    0.17054E+00   -0.17903E-03
    0.79610E+02    0.16131E+00   -0.45188E-04
    0.82098E+02    0.15151E+00    0.20907E-04
    0.84585E+02    0.14222E+00   -0.88664E-04
    0.87073E+02    0.13261E+00   -0.13286E-03
    0.89561E+02    0.11713E+00   -0.41552E-03
    0.92049E+02    0.94087E-01   -0.49932E-03
    0.94537E+02    0.78467E-01   -0.60866E-03
    0.97024E+02    0.62724E-01   -0.11960E-02
    0.99512E+02    0.40341E-01    0.15066E-03
    0.10200E+03    0.68285E-02    0.26355E-02
zone i=     42,T= "1dxhc;t= 0.4500E+03y,z:   1   1"
    0.00000E+00    0.50000E+00    0.00000E+00
    0.24878E+01    0.49601E+00    0.12919E-15
    0.49756E+01    0.49082E+00    0.50042E-15
    0.74634E+01    0.48828E+00    0.10727E-14
    0.99512E+01    0.48330E+00    0.43028E-14
    0.12439E+02    0.48063E+00    0.17173E-13
    0.14927E+02    0.47713E+00    0.55603E-13
    0.17415E+02    0.47148E+00    0.15748E-12
    0.19902E+02    0.46711E+00    0.66093E-12
    0.22390E+02    0.46359E+00    0.16361E-11
    0.24878E+02    0.45624E+00    0.38247E-11
    0.27366E+02    0.45063E+00    0.92476E-11
    0.29854E+02    0.44535E+00    0.19813E-10
    0.32341E+02    0.43930E+00    0.33633E-10
    0.34829E+02    0.42824E+00    0.10851E-09
    0.37317E+02    0.41801E+00    0.20430E-09
    0.39805E+02    0.40610E+00    0.40687E-09
    0.42293E+02    0.39993E+00    0.79451E-09
    0.44780E+02    0.39366E+00    0.14156E-08
    0.47268E+02    0.38801E+00    0.40114E-08
    0.49756E+02    0.38406E+00    0.87669E-08
    0.52244E+02    0.38005E+00    0.16080E-07
    0.54732E+02    0.37658E+00    0.45315E-07
    0.57220E+02    0.37267E+00    0.11861E-06
    0.59707E+02    0.36777E+00    0.43010E-06
    0.62195E+02    0.36400E+00    0.14785E-05
    0.64683E+02    0.36129E+00    0.57694E-05
    0.67171E+02    0.35529E+00    0.29088E-04
    0.69659E+02    0.34978E+00    0.13965E-03
    0.72146E+02    0.34582E+00    0.64083E-03
    0.74634E+02    0.34125E+00    0.37189E-02
    0.77122E+02    0.33811E+00    0.14919E-01
    0.79610E+02    0.34070E+00    0.91302E-01
    0.82098E+02    0.34946E+00    0.32989E+00
    0.84585E+02    0.35872E+00    0.52979E+00
    0.87073E+02    0.36666E+00    0.67475E+00
    0.89561E+02    0.37243E+00    0.81273E+00
    0.92049E+02    0.37898E+00    0.90950E+00
    0.94537E+02    0.38569E+00    0.92076E+00
    0.97024E+02    0.39688E+00    0.93038E+00
    0.99512E+02    0.40491E+00    0.97522E+00
    0.10200E+03    0.40016E+00    0.10000E+01
zone i=     42,T= "1dxhc;t= 0.4500E+03y,z:   1  12"
    0.00000E+00    0.50000E+00    0.00000E+00
    0.24878E+01    0.49827E+00   -0.15181E-18
    0.49756E+01    0.49417E+00   -0.58533E-18
    0.74634E+01    0.49013E+00   -0.32519E-17
    0.99512E+01    0.48657E+00   -0.20687E-16
    0.12439E+02    0.48321E+00   -0.37411E-16
    0.14927E+02    0.48054E+00   -0.32406E-16
    0.17415E+02    0.47484E+00   -0.10168E-15
    0.19902E+02    0.46414E+00   -0.85658E-15
    0.22390E+02    0.45891E+00   -0.46877E-14
    0.24878E+02    0.45105E+00   -0.31556E-13
    0.27366E+02    0.44645E+00   -0.20029E-12
    0.29854E+02    0.43937E+00   -0.12231E-11
    0.32341E+02    0.43041E+00   -0.47261E-11
    0.34829E+02    0.42306E+00   -0.10418E-10
    0.37317E+02    0.41061E+00   -0.19718E-10
    0.39805E+02    0.40477E+00   -0.22310E-10
    0.42293E+02    0.39845E+00   -0.47074E-10
    0.44780E+02    0.39359E+00   -0.12981E-09
    0.47268E+02    0.38813E+00   -0.23804E-09
    0.49756E+02    0.38411E+00    0.45004E-10
    0.52244E+02    0.37940E+00    0.15595E-08
    0.54732E+02    0.37584E+00    0.11897E-07
    0.57220E+02    0.37296E+00    0.19434E-07
    0.59707E+02    0.36763E+00    0.77541E-07
    0.62195E+02    0.36229E+00    0.22453E-06
    0.64683E+02    0.35746E+00    0.58348E-06
    0.67171E+02    0.35344E+00    0.45371E-06
    0.69659E+02    0.34687E+00    0.91481E-06
    0.72146E+02    0.34170E+00    0.10255E-04
    0.74634E+02    0.33699E+00    0.27415E-04
    0.77122E+02    0.33125E+00    0.45538E-04
    0.79610E+02    0.32153E+00    0.84828E-04
    0.82098E+02    0.31204E+00    0.31774E-03
    0.84585E+02    0.30404E+00    0.66227E-03
    0.87073E+02    0.28982E+00    0.51880E-03
    0.89561E+02    0.27534E+00    0.15283E-02
    0.92049E+02    0.25489E+00    0.14468E-01
    0.94537E+02    0.23065E+00    0.63617E-01
    0.97024E+02    0.20508E+00    0.17513E+00
    0.99512E+02    0.18348E+00    0.48478E+00
    0.10200E+03    0.16008E+00    0.10000E+01
zone i=     42,T= "1dxhc;t= 0.4500E+03y,z:   1  22"
    0.00000E+00    0.49844E+00   -0.81863E-12
    0.24878E+01    0.49257E+00   -0.17992E-11
    0.49756E+01    0.48537E+00   -0.69454E-11
    0.74634E+01    0.48030E+00   -0.18345E-10
    0.99512E+01    0.47479E+00   -0.41265E-10
    0.12439E+02    0.46763E+00   -0.11665E-09
    0.14927E+02    0.45983E+00   -0.19991E-09
    0.17415E+02    0.44846E+00   -0.47762E-09
    0.19902E+02    0.44128E+00   -0.77994E-09
    0.22390E+02    0.43501E+00   -0.18860E-08
    0.24878E+02    0.42202E+00   -0.39048E-08
    0.27366E+02    0.40260E+00   -0.84687E-08
    0.29854E+02    0.38363E+00   -0.18100E-07
    0.32341E+02    0.35348E+00   -0.40065E-07
    0.34829E+02    0.33691E+00   -0.76864E-07
    0.37317E+02    0.31640E+00   -0.16238E-06
    0.39805E+02    0.30178E+00   -0.31691E-06
    0.42293E+02    0.29462E+00   -0.60119E-06
    0.44780E+02    0.28831E+00   -0.99011E-06
    0.47268E+02    0.28323E+00   -0.17441E-05
    0.49756E+02    0.27852E+00   -0.25254E-05
    0.52244E+02    0.27155E+00   -0.58076E-05
    0.54732E+02    0.26868E+00   -0.81473E-05
    0.57220E+02    0.26385E+00   -0.13256E-04
    0.59707E+02    0.25683E+00   -0.24799E-04
    0.62195E+02    0.25077E+00   -0.35467E-04
    0.64683E+02    0.23952E+00   -0.62151E-04
    0.67171E+02    0.23102E+00   -0.80281E-04
    0.69659E+02    0.21386E+00   -0.12090E-03
    0.72146E+02    0.19988E+00   -0.15377E-03
    0.74634E+02    0.18188E+00   -0.20794E-03
    0.77122E+02    0.17045E+00   -0.22716E-03
    0.79610E+02    0.16122E+00   -0.11327E-03
    0.82098E+02    0.15142E+00   -0.66296E-04
    0.84585E+02    0.14213E+00   -0.17731E-03
    0.87073E+02    0.13252E+00   -0.22344E-03
    0.89561E+02    0.11703E+00   -0.55498E-03
    0.92049E+02    0.93984E-01   -0.64997E-03
    0.94537E+02    0.78361E-01   -0.76500E-03
    0.97024E+02    0.62625E-01   -0.13034E-02
    0.99512E+02    0.40268E-01    0.74029E-04
    0.10200E+03    0.68149E-02    0.25165E-02
zone i=     42,T= "1dxhc;t= 0.6000E+03y,z:   1   1"
    0.00000E+00    0.50000E+00    0.00000E+00
    0.24878E+01    0.49601E+00    0.35019E-14
    0.49756E+01    0.49082E+00    0.12469E-13
    0.74634E+01    0.48828E+00    0.25099E-13
    0.99512E+01    0.48331E+00    0.90359E-13
    0.12439E+02    0.48063E+00    0.31069E-12
    0.14927E+02    0.47714E+00    0.90286E-12
    0.17415E+02    0.47150E+00    0.23248E-11
    0.19902E+02    0.46712E+00    0.86871E-11
    0.22390E+02    0.46361E+00    0.19627E-10
    0.24878E+02    0.45626E+00    0.42522E-10
    0.27366E+02    0.45066E+00    0.95407E-10
    0.29854E+02    0.44538E+00    0.19088E-09
    0.32341E+02    0.43933E+00    0.30650E-09
    0.34829E+02    0.42828E+00    0.90718E-09
    0.37317E+02    0.41806E+00    0.15935E-08
    0.39805E+02    0.40616E+00    0.29984E-08
    0.42293E+02    0.40000E+00    0.55492E-08
    0.44780E+02    0.39373E+00    0.92953E-08
    0.47268E+02    0.38809E+00    0.23601E-07
    0.49756E+02    0.38414E+00    0.46523E-07
    0.52244E+02    0.38014E+00    0.84116E-07
    0.54732E+02    0.37667E+00    0.21564E-06
    0.57220E+02    0.37276E+00    0.49315E-06
    0.59707E+02    0.36786E+00    0.16056E-05
    0.62195E+02    0.36410E+00    0.39688E-05
    0.64683E+02    0.36138E+00    0.17719E-04
    0.67171E+02    0.35540E+00    0.10151E-03
    0.69659E+02    0.34992E+00    0.49555E-03
    0.72146E+02    0.34611E+00    0.22385E-02
    0.74634E+02    0.34221E+00    0.11749E-01
    0.77122E+02    0.34117E+00    0.51157E-03
    0.79610E+02    0.34852E+00    0.27230E+00
    0.82098E+02    0.35803E+00    0.47373E+00
    0.84585E+02    0.36666E+00    0.61888E+00
    0.87073E+02    0.37376E+00    0.74101E+00
    0.89561E+02    0.37874E+00    0.85467E+00
    0.92049E+02    0.38428E+00    0.93172E+00
    0.94537E+02    0.38993E+00    0.93924E+00
    0.97024E+02    0.39917E+00    0.94540E+00
    0.99512E+02    0.40602E+00    0.98623E+00
    0.10200E+03    0.40016E+00    0.10000E+01
zone i=     42,T= "1dxhc;t= 0.6000E+03y,z:   1  12"
    0.00000E+00    0.50000E+00    0.00000E+00
    0.24878E+01    0.49827E+00   -0.53526E-17
    0.49756E+01    0.49417E+00   -0.15207E-16
    0.74634E+01    0.49013E+00   -0.58860E-16
    0.99512E+01    0.48658E+00   -0.30742E-15
    0.12439E+02    0.48322E+00   -0.57270E-15
    0.14927E+02    0.48054E+00   -0.51952E-15
    0.17415E+02    0.47485E+00   -0.14035E-14
    0.19902E+02    0.46415E+00   -0.90826E-14
    0.22390E+02    0.45893E+00   -0.42581E-13
    0.24878E+02    0.45108E+00   -0.24457E-12
    0.27366E+02    0.44648E+00   -0.13402E-11
    0.29854E+02    0.43940E+00   -0.74899E-11
    0.32341E+02    0.43045E+00   -0.27555E-10
    0.34829E+02    0.42311E+00   -0.62663E-10
    0.37317E+02    0.41067E+00   -0.11622E-09
    0.39805E+02    0.40483E+00   -0.12740E-09
    0.42293E+02    0.39852E+00   -0.22914E-09
    0.44780E+02    0.39366E+00   -0.51751E-09
    0.47268E+02    0.38821E+00   -0.70321E-09
    0.49756E+02    0.38419E+00    0.88850E-09
    0.52244E+02    0.37948E+00    0.68369E-08
    0.54732E+02    0.37592E+00    0.49393E-07
    0.57220E+02    0.37304E+00    0.81119E-07
    0.59707E+02    0.36771E+00    0.29780E-06
    0.62195E+02    0.36236E+00    0.78914E-06
    0.64683E+02    0.35750E+00    0.18761E-05
    0.67171E+02    0.35344E+00    0.14178E-05
    0.69659E+02    0.34678E+00    0.25716E-05
    0.72146E+02    0.34147E+00    0.25075E-04
    0.74634E+02    0.33656E+00    0.63251E-04
    0.77122E+02    0.33053E+00    0.10097E-03
    0.79610E+02    0.32022E+00    0.19461E-03
    0.82098E+02    0.31014E+00    0.65953E-03
    0.84585E+02    0.30174E+00    0.12264E-02
    0.87073E+02    0.28707E+00    0.12205E-02
    0.89561E+02    0.27237E+00    0.38779E-02
    0.92049E+02    0.25200E+00    0.21637E-01
    0.94537E+02    0.22822E+00    0.74415E-01
    0.97024E+02    0.20337E+00    0.18546E+00
    0.99512E+02    0.18254E+00    0.49182E+00
    0.10200E+03    0.16008E+00    0.10000E+01
zone i=     42,T= "1dxhc;t= 0.6000E+03y,z:   1  22"
    0.00000E+00    0.49844E+00   -0.61159E-11
    0.24878E+01    0.49257E+00   -0.10967E-10
    0.49756E+01    0.48537E+00   -0.37576E-10
    0.74634E+01    0.48029E+00   -0.83721E-10
    0.99512E+01    0.47479E+00   -0.17062E-09
    0.12439E+02    0.46762E+00   -0.41777E-09
    0.14927E+02    0.45982E+00   -0.65908E-09
    0.17415E+02    0.44845E+00   -0.14574E-08
    0.19902E+02    0.44127E+00   -0.23671E-08
    0.22390E+02    0.43500E+00   -0.53680E-08
    0.24878E+02    0.42200E+00   -0.10449E-07
    0.27366E+02    0.40258E+00   -0.21028E-07
    0.29854E+02    0.38361E+00   -0.40910E-07
    0.32341E+02    0.35345E+00   -0.80337E-07
    0.34829E+02    0.33688E+00   -0.14136E-06
    0.37317E+02    0.31637E+00   -0.27237E-06
    0.39805E+02    0.30174E+00   -0.48240E-06
    0.42293E+02    0.29459E+00   -0.83077E-06
    0.44780E+02    0.28827E+00   -0.13051E-05
    0.47268E+02    0.28320E+00   -0.22064E-05
    0.49756E+02    0.27848E+00   -0.31751E-05
    0.52244E+02    0.27151E+00   -0.70100E-05
    0.54732E+02    0.26864E+00   -0.96997E-05
    0.57220E+02    0.26381E+00   -0.15621E-04
    0.59707E+02    0.25679E+00   -0.27668E-04
    0.62195E+02    0.25072E+00   -0.38571E-04
    0.64683E+02    0.23947E+00   -0.65439E-04
    0.67171E+02    0.23097E+00   -0.83611E-04
    0.69659E+02    0.21380E+00   -0.12562E-03
    0.72146E+02    0.19983E+00   -0.16083E-03
    0.74634E+02    0.18182E+00   -0.22003E-03
    0.77122E+02    0.17039E+00   -0.24722E-03
    0.79610E+02    0.16116E+00   -0.15014E-03
    0.82098E+02    0.15135E+00   -0.13192E-03
    0.84585E+02    0.14207E+00   -0.25275E-03
    0.87073E+02    0.13245E+00   -0.30965E-03
    0.89561E+02    0.11697E+00   -0.64683E-03
    0.92049E+02    0.93916E-01   -0.73582E-03
    0.94537E+02    0.78292E-01   -0.84685E-03
    0.97024E+02    0.62562E-01   -0.13480E-02
    0.99512E+02    0.40223E-01    0.41830E-04
    0.10200E+03    0.68065E-02    0.24510E-02
zone i=     42,T= "1dxhc;t= 0.7500E+03y,z:   1   1"
    0.00000E+00    0.50000E+00    0.00000E+00
    0.24878E+01    0.49601E+00    0.38088E-13
    0.49756E+01    0.49083E+00    0.12748E-12
    0.74634E+01    0.48829E+00    0.24550E-12
    0.99512E+01    0.48332E+00    0.80763E-12
    0.12439E+02    0.48065E+00    0.24574E-11
    0.14927E+02    0.47716E+00    0.65442E-11
    0.17415E+02    0.47152E+00    0.15623E-10
    0.19902E+02    0.46714E+00    0.53044E-10
    0.22390E+02    0.46363E+00    0.11169E-09
    0.24878E+02    0.45629E+00    0.22819E-09
    0.27366E+02    0.45070E+00    0.48369E-09
    0.29854E+02    0.44542E+00    0.91870E-09
    0.32341E+02    0.43938E+00    0.14147E-08
    0.34829E+02    0.42833E+00    0.39196E-08
    0.37317E+02    0.41812E+00    0.65566E-08
    0.39805E+02    0.40624E+00    0.11833E-07
    0.42293E+02    0.40008E+00    0.21099E-07
    0.44780E+02    0.39382E+00    0.34029E-07
    0.47268E+02    0.38818E+00    0.79652E-07
    0.49756E+02    0.38424E+00    0.14573E-06
    0.52244E+02    0.38025E+00    0.26491E-06
    0.54732E+02    0.37678E+00    0.66155E-06
    0.57220E+02    0.37287E+00    0.15298E-05
    0.59707E+02    0.36798E+00    0.53482E-05
    0.62195E+02    0.36422E+00    0.13996E-04
    0.64683E+02    0.36150E+00    0.59586E-04
    0.67171E+02    0.35553E+00    0.32926E-03
    0.69659E+02    0.35012E+00    0.14958E-02
    0.72146E+02    0.34646E+00    0.62872E-02
    0.74634E+02    0.34384E+00    0.19001E-01
    0.77122E+02    0.34505E+00    0.12076E+00
    0.79610E+02    0.35459E+00    0.37743E+00
    0.82098E+02    0.36417E+00    0.55947E+00
    0.84585E+02    0.37225E+00    0.68230E+00
    0.87073E+02    0.37863E+00    0.78367E+00
    0.89561E+02    0.38301E+00    0.88077E+00
    0.92049E+02    0.38783E+00    0.94477E+00
    0.94537E+02    0.39274E+00    0.95036E+00
    0.97024E+02    0.40065E+00    0.95492E+00
    0.99512E+02    0.40672E+00    0.99183E+00
    0.10200E+03    0.40016E+00    0.10000E+01
zone i=     42,T= "1dxhc;t= 0.7500E+03y,z:   1  12"
    0.00000E+00    0.50000E+00    0.00000E+00
    0.24878E+01    0.49827E+00   -0.72165E-16
    0.49756E+01    0.49417E+00   -0.17010E-15
    0.74634E+01    0.49014E+00   -0.47035E-15
    0.99512E+01    0.48658E+00   -0.20097E-14
    0.12439E+02    0.48323E+00   -0.38717E-14
    0.14927E+02    0.48056E+00   -0.33487E-14
    0.17415E+02    0.47486E+00   -0.61102E-14
    0.19902E+02    0.46418E+00   -0.28714E-13
    0.22390E+02    0.45896E+00   -0.13581E-12
    0.24878E+02    0.45111E+00   -0.73324E-12
    0.27366E+02    0.44652E+00   -0.39443E-11
    0.29854E+02    0.43945E+00   -0.22908E-10
    0.32341E+02    0.43050E+00   -0.83686E-10
    0.34829E+02    0.42317E+00   -0.19965E-09
    0.37317E+02    0.41074E+00   -0.35511E-09
    0.39805E+02    0.40491E+00   -0.35006E-09
    0.42293E+02    0.39860E+00   -0.46912E-09
    0.44780E+02    0.39375E+00   -0.78441E-09
    0.47268E+02    0.38830E+00   -0.88222E-10
    0.49756E+02    0.38429E+00    0.59643E-08
    0.52244E+02    0.37958E+00    0.22015E-07
    0.54732E+02    0.37603E+00    0.13893E-06
    0.57220E+02    0.37315E+00    0.22828E-06
    0.59707E+02    0.36782E+00    0.79059E-06
    0.62195E+02    0.36245E+00    0.19612E-05
    0.64683E+02    0.35757E+00    0.43738E-05
    0.67171E+02    0.35348E+00    0.34037E-05
    0.69659E+02    0.34672E+00    0.59160E-05
    0.72146E+02    0.34127E+00    0.48336E-04
    0.74634E+02    0.33617E+00    0.11477E-03
    0.77122E+02    0.32989E+00    0.17749E-03
    0.79610E+02    0.31914E+00    0.34575E-03
    0.82098E+02    0.30868E+00    0.10712E-02
    0.84585E+02    0.30003E+00    0.18588E-02
    0.87073E+02    0.28510E+00    0.21270E-02
    0.89561E+02    0.27031E+00    0.63553E-02
    0.92049E+02    0.25003E+00    0.27697E-01
    0.94537E+02    0.22659E+00    0.82866E-01
    0.97024E+02    0.20224E+00    0.19325E+00
    0.99512E+02    0.18192E+00    0.49672E+00
    0.10200E+03    0.16008E+00    0.10000E+01
zone i=     42,T= "1dxhc;t= 0.7500E+03y,z:   1  22"
    0.00000E+00    0.49844E+00   -0.22356E-10
    0.24878E+01    0.49257E+00   -0.34246E-10
    0.49756E+01    0.48536E+00   -0.10728E-09
    0.74634E+01    0.48029E+00   -0.21131E-09
    0.99512E+01    0.47478E+00   -0.40145E-09
    0.12439E+02    0.46762E+00   -0.88567E-09
    0.14927E+02    0.45982E+00   -0.13235E-08
    0.17415E+02    0.44845E+00   -0.27726E-08
    0.19902E+02    0.44126E+00   -0.44893E-08
    0.22390E+02    0.43499E+00   -0.97600E-08
    0.24878E+02    0.42199E+00   -0.18260E-07
    0.27366E+02    0.40257E+00   -0.35061E-07
    0.29854E+02    0.38359E+00   -0.64157E-07
    0.32341E+02    0.35344E+00   -0.11615E-06
    0.34829E+02    0.33686E+00   -0.19248E-06
    0.37317E+02    0.31634E+00   -0.34892E-06
    0.39805E+02    0.30172E+00   -0.58306E-06
    0.42293E+02    0.29456E+00   -0.94739E-06
    0.44780E+02    0.28824E+00   -0.14473E-05
    0.47268E+02    0.28317E+00   -0.23898E-05
    0.49756E+02    0.27846E+00   -0.34293E-05
    0.52244E+02    0.27148E+00   -0.74263E-05
    0.54732E+02    0.26861E+00   -0.10229E-04
    0.57220E+02    0.26378E+00   -0.16451E-04
    0.59707E+02    0.25676E+00   -0.28466E-04
    0.62195E+02    0.25069E+00   -0.39289E-04
    0.64683E+02    0.23944E+00   -0.65856E-04
    0.67171E+02    0.23093E+00   -0.83830E-04
    0.69659E+02    0.21376E+00   -0.12606E-03
    0.72146E+02    0.19979E+00   -0.16210E-03
    0.74634E+02    0.18177E+00   -0.22334E-03
    0.77122E+02    0.17034E+00   -0.25452E-03
    0.79610E+02    0.16111E+00   -0.16766E-03
    0.82098E+02    0.15131E+00   -0.17005E-03
    0.84585E+02    0.14202E+00   -0.30392E-03
    0.87073E+02    0.13240E+00   -0.37594E-03
    0.89561E+02    0.11692E+00   -0.70379E-03
    0.92049E+02    0.93865E-01   -0.78261E-03
    0.94537E+02    0.78242E-01   -0.88849E-03
    0.97024E+02    0.62516E-01   -0.13664E-02
    0.99512E+02    0.40191E-01    0.28590E-04
    0.10200E+03    0.68006E-02    0.24195E-02
zone i=     42,T= "1dxhc;t= 0.9000E+03y,z:   1   1"
    0.00000E+00    0.50000E+00    0.00000E+00
    0.24878E+01    0.49601E+00    0.22749E-12
    0.49756E+01    0.49083E+00    0.72740E-12