          Title="3D head and conc at t=   0.2500E+04 days"
          variables="x","y","z","head","conc"
          zone i=      22, j=      42, k=      42, T="3D"
  0.00000000E+00  0.00000000E+00  0.00000000E+00  0.50000000E+00  0.00000000E+00
  0.00000000E+00  0.00000000E+00  0.97611627E+00  0.50000000E+00  0.00000000E+00
  0.00000000E+00  0.00000000E+00  0.19522325E+01  0.50000000E+00  0.00000000E+00
  0.00000000E+00  0.00000000E+00  0.29283488E+01  0.50000000E+00  0.00000000E+00
  0.00000000E+00  0.00000000E+00  0.39044651E+01  0.50000000E+00  0.00000000E+00
  0.00000000E+00  0.00000000E+00  0.48805814E+01  0.50000000E+00  0.00000000E+00
  0.00000000E+00  0.00000000E+00  0.58566976E+01  0.50000000E+00  0.00000000E+00
  0.00000000E+00  0.00000000E+00  0.68328139E+01  0.50000000E+00  0.00000000E+00
  0.00000000E+00  0.00000000E+00  0.78089302E+01  0.50000000E+00  0.00000000E+00
  0.00000000E+00  0.00000000E+00  0.87850464E+01  0.50000000E+00  0.00000000E+00
  0.00000000E+00  0.00000000E+00  0.97611627E+01  0.50000000E+00  0.00000000E+00
  0.00000000E+00  0.00000000E+00  0.10737279E+02  0.50000000E+00  0.00000000E+00
  0.00000000E+00  0.00000000E+00  0.11713395E+02  0.50000000E+00  0.00000000E+00
  0.00000000E+00  0.00000000E+00  0.12689512E+02  0.50000000E+00  0.00000000E+00
  0.00000000E+00  0.00000000E+00  0.13665628E+02  0.50000000E+00  0.00000000E+00
  0.00000000E+00  0.00000000E+00  0.14641744E+02  0.50000000E+00  0.00000000E+00
  0.00000000E+00  0.00000000E+00  0.15617860E+02  0.50000000E+00  0.00000000E+00
  0.00000000E+00  0.00000000E+00  0.16593977E+02  0.50000000E+00  0.00000000E+00
  0.00000000E+00  0.00000000E+00  0.17570093E+02  0.50000000E+00  0.00000000E+00
  0.00000000E+00  0.00000000E+00  0.18546209E+02  0.50000000E+00  0.00000000E+00
  0.00000000E+00  0.00000000E+00  0.19522325E+02  0.50000000E+00  0.00000000E+00
  0.00000000E+00  0.00000000E+00  0.20498442E+02  0.49843690E+00 -0.23658302E-09
  0.00000000E+00  0.24878049E+01  0.00000000E+00  0.50000000E+00  0.00000000E+00
  0.00000000E+00  0.24878049E+01  0.97611071E+00  0.50000000E+00  0.00000000E+00
  0.00000000E+00  0.24878049E+01  0.19522214E+01  0.50000000E+00  0.00000000E+00
  0.00000000E+00  0.24878049E+01  0.29283321E+01  0.50000000E+00  0.00000000E+00
  0.00000000E+00  0.24878049E+01  0.39044429E+01  0.50000000E+00  0.00000000E+00
  0.00000000E+00  0.24878049E+01  0.48805536E+01  0.50000000E+00  0.00000000E+00
  0.00000000E+00  0.24878049E+01  0.58566643E+01  0.50000000E+00  0.00000000E+00
  0.00000000E+00  0.24878049E+01  0.68327750E+01  0.50000000E+00  0.00000000E+00
  0.00000000E+00  0.24878049E+01  0.78088857E+01  0.50000000E+00  0.00000000E+00
  0.00000000E+00  0.24878049E+01  0.87849964E+01  0.50000000E+00  0.00000000E+00
  0.00000000E+00  0.24878049E+01  0.97611071E+01  0.50000000E+00  0.00000000E+00
  0.00000000E+00  0.24878049E+01  0.10737218E+02  0.50000000E+00  0.00000000E+00
  0.00000000E+00  0.24878049E+01  0.11713329E+02  0.50000000E+00  0.00000000E+00
  0.00000000E+00  0.24878049E+01  0.12689439E+02  0.50000000E+00  0.00000000E+00
  0.00000000E+00  0.24878049E+01  0.13665550E+02  0.50000000E+00  0.00000000E+00
  0.00000000E+00  0.24878049E+01  0.14641661E+02  0.50000000E+00  0.00000000E+00
  0.00000000E+00  0.24878049E+01  0.15617771E+02  0.50000000E+00  0.00000000E+00
  0.00000000E+00  0.24878049E+01  0.16593882E+02  0.50000000E+00  0.00000000E+00
  0.00000000E+00  0.24878049E+01  0.17569993E+02  0.50000000E+00  0.00000000E+00
  0.00000000E+00  0.24878049E+01  0.18546104E+02  0.50000000E+00  0.00000000E+00
  0.00000000E+00  0.24878049E+01  0.19522214E+02  0.50000000E+00  0.00000000E+00
  0.00000000E+00  0.24878049E+01  0.20498325E+02  0.49832006E+00 -0.19286397E-09
  0.00000000E+00  0.49756098E+01  0.00000000E+00  0.50000000E+00  0.00000000E+00
  0.00000000E+00  0.49756098E+01  0.97611414E+00  0.50000000E+00  0.00000000E+00
  0.00000000E+00  0.49756098E+01  0.19522283E+01  0.50000000E+00  0.00000000E+00
  0.00000000E+00  0.49756098E+01  0.29283424E+01  0.50000000E+00  0.00000000E+00
  0.00000000E+00  0.49756098E+01  0.39044566E+01  0.50000000E+00  0.00000000E+00
  0.00000000E+00  0.49756098E+01  0.48805707E+01  0.50000000E+00  0.00000000E+00
  0.00000000E+00  0.49756098E+01  0.58566849E+01  0.50000000E+00  0.00000000E+00
  0.00000000E+00  0.49756098E+01  0.68327990E+01  0.50000000E+00  0.00000000E+00
  0.00000000E+00  0.49756098E+01  0.78089131E+01  0.50000000E+00  0.00000000E+00
  0.00000000E+00  0.49756098E+01  0.87850273E+01  0.50000000E+00  0.00000000E+00
  0.00000000E+00  0.49756098E+01  0.97611414E+01  0.50000000E+00  0.00000000E+00
  0.00000000E+00  0.49756098E+01  0.10737256E+02  0.50000000E+00  0.00000000E+00
  0.00000000E+00  0.49756098E+01  0.11713370E+02  0.50000000E+00  0.00000000E+00
  0.00000000E+00  0.49756098E+01  0.12689484E+02  0.50000000E+00  0.00000000E+00
  0.00000000E+00  0.49756098E+01  0.13665598E+02  0.50000000E+00  0.00000000E+00
  0.00000000E+00  0.49756098E+01  0.14641712E+02  0.50000000E+00  0.00000000E+00
  0.00000000E+00  0.49756098E+01  0.15617826E+02  0.50000000E+00  0.00000000E+00
  0.00000000E+00  0.49756098E+01  0.16593940E+02  0.50000000E+00  0.00000000E+00
  0.00000000E+00  0.49756098E+01  0.17570055E+02  0.50000000E+00  0.00000000E+00
  0.00000000E+00  0.49756098E+01  0.18546169E+02  0.50000000E+00  0.00000000E+00
  0.00000000E+00  0.49756098E+01  0.19522283E+02  0.50000000E+00  0.00000000E+00
  0.00000000E+00  0.49756098E+01  0.20498397E+02  0.49839246E+00 -0.12734274E-09
  0.00000000E+00  0.74634146E+01  0.00000000E+00  0.50000000E+00  0.00000000E+00
  0.00000000E+00  0.74634146E+01  0.97611414E+00  0.50000000E+00  0.00000000E+00
  0.00000000E+00  0.74634146E+01  0.19522283E+01  0.50000000E+00  0.00000000E+00
  0.00000000E+00  0.74634146E+01  0.29283424E+01  0.50000000E+00  0.00000000E+00
  0.00000000E+00  0.74634146E+01  0.39044566E+01  0.50000000E+00  0.00000000E+00
  0.00000000E+00  0.74634146E+01  0.48805707E+01  0.50000000E+00  0.00000000E+00
  0.00000000E+00  0.74634146E+01  0.58566848E+01  0.50000000E+00  0.00000000E+00
  0.00000000E+00  0.74634146E+01  0.68327990E+01  0.50000000E+00  0.00000000E+00
  0.00000000E+00  0.74634146E+01  0.78089131E+01  0.50000000E+00  0.00000000E+00
  0.00000000E+00  0.74634146E+01  0.87850273E+01  0.50000000E+00  0.00000000E+00
  0.00000000E+00  0.74634146E+01  0.97611414E+01  0.50000000E+00  0.00000000E+00
  0.00000000E+00  0.74634146E+01  0.10737256E+02  0.50000000E+00  0.00000000E+00
  0.00000000E+00  0.74634146E+01  0.11713370E+02  0.50000000E+00  0.00000000E+00
  0.00000000E+00  0.74634146E+01  0.12689484E+02  0.50000000E+00  0.00000000E+00
  0.00000000E+00  0.74634146E+01  0.13665598E+02  0.50000000E+00  0.00000000E+00
  0.00000000E+00  0.74634146E+01  0.14641712E+02  0.50000000E+00  0.00000000E+00
  0.00000000E+00  0.74634146E+01  0.15617826E+02  0.50000000E+00  0.00000000E+00
  0.00000000E+00  0.74634146E+01  0.16593940E+02  0.50000000E+00  0.00000000E+00
  0.00000000E+00  0.74634146E+01  0.17570055E+02  0.50000000E+00  0.00000000E+00
  0.00000000E+00  0.74634146E+01  0.18546169E+02  0.50000000E+00  0.00000000E+00
  0.00000000E+00  0.74634146E+01  0.19522283E+02  0.50000000E+00  0.00000000E+00
  0.00000000E+00  0.74634146E+01  0.20498397E+02  0.49839239E+00 -0.10589990E-09
  0.00000000E+00  0.99512195E+01  0.00000000E+00  0.50000000E+00  0.00000000E+00
  0.00000000E+00  0.99512195E+01  0.97612204E+00  0.50000000E+00  0.00000000E+00
  0.00000000E+00  0.99512195E+01  0.19522441E+01  0.50000000E+00  0.00000000E+00
  0.00000000E+00  0.99512195E+01  0.29283661E+01  0.50000000E+00  0.00000000E+00
  0.00000000E+00  0.99512195E+01  0.39044881E+01  0.50000000E+00  0.00000000E+00
  0.00000000E+00  0.99512195E+01  0.48806102E+01  0.50000000E+00  0.00000000E+00
  0.00000000E+00  0.99512195E+01  0.58567322E+01  0.50000000E+00  0.00000000E+00
  0.00000000E+00  0.99512195E+01  0.68328543E+01  0.50000000E+00  0.00000000E+00
  0.00000000E+00  0.99512195E+01  0.78089763E+01  0.50000000E+00  0.00000000E+00
  0.00000000E+00  0.99512195E+01  0.87850983E+01  0.50000000E+00  0.00000000E+00
  0.00000000E+00  0.99512195E+01  0.97612204E+01  0.50000000E+00  0.00000000E+00
  0.00000000E+00  0.99512195E+01  0.10737342E+02  0.50000000E+00  0.00000000E+00
  0.00000000E+00  0.99512195E+01  0.11713464E+02  0.50000000E+00  0.00000000E+00
  0.00000000E+00  0.99512195E+01  0.12689586E+02  0.50000000E+00  0.00000000E+00
  0.00000000E+00  0.99512195E+01  0.13665709E+02  0.50000000E+00  0.00000000E+00
  0.00000000E+00  0.99512195E+01  0.14641831E+02  0.50000000E+00  0.00000000E+00
  0.00000000E+00  0.99512195E+01  0.15617953E+02  0.50000000E+00  0.00000000E+00
  0.00000000E+00  0.99512195E+01  0.16594075E+02  0.50000000E+00  0.00000000E+00
  0.00000000E+00  0.99512195E+01  0.17570197E+02  0.50000000E+00  0.00000000E+00
  0.00000000E+00  0.99512195E+01  0.18546319E+02  0.50000000E+00  0.00000000E+00
  0.00000000E+00  0.99512195E+01  0.19522441E+02  0.50000000E+00  0.00000000E+00
  0.00000000E+00  0.99512195E+01  0.20498563E+02  0.49855856E+00 -0.92611508E-10
  0.00000000E+00  0.12439024E+02  0.00000000E+00  0.50000000E+00  0.00000000E+00
  0.00000000E+00  0.12439024E+02  0.97613601E+00  0.50000000E+00  0.00000000E+00
  0.00000000E+00  0.12439024E+02  0.19522720E+01  0.50000000E+00  0.00000000E+00
  0.00000000E+00  0.12439024E+02  0.29284080E+01  0.50000000E+00  0.00000000E+00
  0.00000000E+00  0.12439024E+02  0.39045440E+01  0.50000000E+00  0.00000000E+00
  0.00000000E+00  0.12439024E+02  0.48806800E+01  0.50000000E+00  0.00000000E+00
  0.00000000E+00  0.12439024E+02  0.58568160E+01  0.50000000E+00  0.00000000E+00
  0.00000000E+00  0.12439024E+02  0.68329521E+01  0.50000000E+00  0.00000000E+00
  0.00000000E+00  0.12439024E+02  0.78090881E+01  0.50000000E+00  0.00000000E+00
  0.00000000E+00  0.12439024E+02  0.87852241E+01  0.50000000E+00  0.00000000E+00
  0.00000000E+00  0.12439024E+02  0.97613601E+01  0.50000000E+00  0.00000000E+00
  0.00000000E+00  0.12439024E+02  0.10737496E+02  0.50000000E+00  0.00000000E+00
  0.00000000E+00  0.12439024E+02  0.11713632E+02  0.50000000E+00  0.00000000E+00
  0.00000000E+00  0.12439024E+02  0.12689768E+02  0.50000000E+00  0.00000000E+00
  0.00000000E+00  0.12439024E+02  0.13665904E+02  0.50000000E+00  0.00000000E+00
  0.00000000E+00  0.12439024E+02  0.14642040E+02  0.50000000E+00  0.00000000E+00
  0.00000000E+00  0.12439024E+02  0.15618176E+02  0.50000000E+00  0.00000000E+00
  0.00000000E+00  0.12439024E+02  0.16594312E+02  0.50000000E+00  0.00000000E+00
  0.00000000E+00  0.12439024E+02  0.17570448E+02  0.50000000E+00  0.00000000E+00
  0.00000000E+00  0.12439024E+02  0.18546584E+02  0.50000000E+00  0.00000000E+00
  0.00000000E+00  0.12439024E+02  0.19522720E+02  0.50000000E+00  0.00000000E+00
  0.00000000E+00  0.12439024E+02  0.20498856E+02  0.49885272E+00 -0.67818932E-10
  0.00000000E+00  0.14926829E+02  0.00000000E+00  0.50000000E+00  0.00000000E+00
  0.00000000E+00  0.14926829E+02  0.97614554E+00  0.50000000E+00  0.00000000E+00
  0.00000000E+00  0.14926829E+02  0.19522911E+01  0.50000000E+00  0.00000000E+00
  0.00000000E+00  0.14926829E+02  0.29284366E+01  0.50000000E+00  0.00000000E+00
  0.00000000E+00  0.14926829E+02  0.39045822E+01  0.50000000E+00  0.00000000E+00
  0.00000000E+00  0.14926829E+02  0.48807277E+01  0.50000000E+00  0.00000000E+00
  0.00000000E+00  0.14926829E+02  0.58568733E+01  0.50000000E+00  0.00000000E+00
  0.00000000E+00  0.14926829E+02  0.68330188E+01  0.50000000E+00  0.00000000E+00
  0.00000000E+00  0.14926829E+02  0.78091643E+01  0.50000000E+00  0.00000000E+00
  0.00000000E+00  0.14926829E+02  0.87853099E+01  0.50000000E+00  0.00000000E+00
  0.00000000E+00  0.14926829E+02  0.97614554E+01  0.50000000E+00  0.00000000E+00
  0.00000000E+00  0.14926829E+02  0.10737601E+02  0.50000000E+00  0.00000000E+00
  0.00000000E+00  0.14926829E+02  0.11713747E+02  0.50000000E+00  0.00000000E+00
  0.00000000E+00  0.14926829E+02  0.12689892E+02  0.50000000E+00  0.00000000E+00
  0.00000000E+00  0.14926829E+02  0.13666038E+02  0.50000000E+00  0.00000000E+00
  0.00000000E+00  0.14926829E+02  0.14642183E+02  0.50000000E+00  0.00000000E+00
  0.00000000E+00  0.14926829E+02  0.15618329E+02  0.50000000E+00  0.00000000E+00
  0.00000000E+00  0.14926829E+02  0.16594474E+02  0.50000000E+00  0.00000000E+00
  0.00000000E+00  0.14926829E+02  0.17570620E+02  0.50000000E+00  0.00000000E+00
  0.00000000E+00  0.14926829E+02  0.18546765E+02  0.50000000E+00  0.00000000E+00
  0.00000000E+00  0.14926829E+02  0.19522911E+02  0.50000000E+00  0.00000000E+00
  0.00000000E+00  0.14926829E+02  0.20499056E+02  0.49905345E+00 -0.29975631E-10
  0.00000000E+00  0.17414634E+02  0.00000000E+00  0.50000000E+00  0.00000000E+00
  0.00000000E+00  0.17414634E+02  0.97615788E+00  0.50000000E+00  0.00000000E+00
  0.00000000E+00  0.17414634E+02  0.19523158E+01  0.50000000E+00  0.00000000E+00
  0.00000000E+00  0.17414634E+02  0.29284736E+01  0.50000000E+00  0.00000000E+00
  0.00000000E+00  0.17414634E+02  0.39046315E+01  0.50000000E+00  0.00000000E+00
  0.00000000E+00  0.17414634E+02  0.48807894E+01  0.50000000E+00  0.00000000E+00
  0.00000000E+00  0.17414634E+02  0.58569473E+01  0.50000000E+00  0.00000000E+00
  0.00000000E+00  0.17414634E+02  0.68331052E+01  0.50000000E+00  0.00000000E+00
  0.00000000E+00  0.17414634E+02  0.78092631E+01  0.50000000E+00  0.00000000E+00
  0.00000000E+00  0.17414634E+02  0.87854209E+01  0.50000000E+00  0.00000000E+00
  0.00000000E+00  0.17414634E+02  0.97615788E+01  0.50000000E+00  0.00000000E+00
  0.00000000E+00  0.17414634E+02  0.10737737E+02  0.50000000E+00  0.00000000E+00
  0.00000000E+00  0.17414634E+02  0.11713895E+02  0.50000000E+00  0.00000000E+00
  0.00000000E+00  0.17414634E+02  0.12690052E+02  0.50000000E+00  0.00000000E+00
  0.00000000E+00  0.17414634E+02  0.13666210E+02  0.50000000E+00  0.00000000E+00
  0.00000000E+00  0.17414634E+02  0.14642368E+02  0.50000000E+00  0.00000000E+00
  0.00000000E+00  0.17414634E+02  0.15618526E+02  0.50000000E+00  0.00000000E+00
  0.00000000E+00  0.17414634E+02  0.16594684E+02  0.50000000E+00  0.00000000E+00
  0.00000000E+00  0.17414634E+02  0.17570842E+02  0.50000000E+00  0.00000000E+00
  0.00000000E+00  0.17414634E+02  0.18547000E+02  0.50000000E+00  0.00000000E+00
  0.00000000E+00  0.17414634E+02  0.19523158E+02  0.50000000E+00  0.00000000E+00
  0.00000000E+00  0.17414634E+02  0.20499316E+02  0.49931332E+00  0.29167739E-10
  0.00000000E+00  0.19902439E+02  0.00000000E+00  0.50000000E+00  0.00000000E+00
  0.00000000E+00  0.19902439E+02  0.97615840E+00  0.50000000E+00  0.00000000E+00
  0.00000000E+00  0.19902439E+02  0.19523168E+01  0.50000000E+00  0.00000000E+00
  0.00000000E+00  0.19902439E+02  0.29284752E+01  0.50000000E+00  0.00000000E+00
  0.00000000E+00  0.19902439E+02  0.39046336E+01  0.50000000E+00  0.00000000E+00
  0.00000000E+00  0.19902439E+02  0.48807920E+01  0.50000000E+00  0.00000000E+00
  0.00000000E+00  0.19902439E+02  0.58569504E+01  0.50000000E+00  0.00000000E+00
  0.00000000E+00  0.19902439E+02  0.68331088E+01  0.50000000E+00  0.00000000E+00
  0.00000000E+00  0.19902439E+02  0.78092672E+01  0.50000000E+00  0.00000000E+00
  0.00000000E+00  0.19902439E+02  0.87854256E+01  0.50000000E+00  0.00000000E+00
  0.00000000E+00  0.19902439E+02  0.97615840E+01  0.50000000E+00  0.00000000E+00
  0.00000000E+00  0.19902439E+02  0.10737742E+02  0.50000000E+00  0.00000000E+00
  0.00000000E+00  0.19902439E+02  0.11713901E+02  0.50000000E+00  0.00000000E+00
  0.00000000E+00  0.19902439E+02  0.12690059E+02  0.50000000E+00  0.00000000E+00
  0.00000000E+00  0.19902439E+02  0.13666218E+02  0.50000000E+00  0.00000000E+00
  0.00000000E+00  0.19902439E+02  0.14642376E+02  0.50000000E+00  0.00000000E+00
  0.00000000E+00  0.19902439E+02  0.15618534E+02  0.50000000E+00  0.00000000E+00
  0.00000000E+00  0.19902439E+02  0.16594693E+02  0.50000000E+00  0.00000000E+00
  0.00000000E+00  0.19902439E+02  0.17570851E+02  0.50000000E+00  0.00000000E+00
  0.00000000E+00  0.19902439E+02  0.18547010E+02  0.50000000E+00  0.00000000E+00
  0.00000000E+00  0.19902439E+02  0.19523168E+02  0.50000000E+00  0.00000000E+00
  0.00000000E+00  0.19902439E+02  0.20499326E+02  0.49932423E+00  0.95847580E-10
  0.00000000E+00  0.22390244E+02  0.00000000E+00  0.50000000E+00  0.00000000E+00
  0.00000000E+00  0.22390244E+02  0.97615071E+00  0.50000000E+00  0.00000000E+00
  0.00000000E+00  0.22390244E+02  0.19523014E+01  0.50000000E+00  0.00000000E+00
  0.00000000E+00  0.22390244E+02  0.29284521E+01  0.50000000E+00  0.00000000E+00
  0.00000000E+00  0.22390244E+02  0.39046029E+01  0.50000000E+00  0.00000000E+00
  0.00000000E+00  0.22390244E+02  0.48807536E+01  0.50000000E+00  0.00000000E+00
  0.00000000E+00  0.22390244E+02  0.58569043E+01  0.50000000E+00  0.00000000E+00
  0.00000000E+00  0.22390244E+02  0.68330550E+01  0.50000000E+00  0.00000000E+00
  0.00000000E+00  0.22390244E+02  0.78092057E+01  0.50000000E+00  0.00000000E+00
  0.00000000E+00  0.22390244E+02  0.87853564E+01  0.50000000E+00  0.00000000E+00
  0.00000000E+00  0.22390244E+02  0.97615071E+01  0.50000000E+00  0.00000000E+00
  0.00000000E+00  0.22390244E+02  0.10737658E+02  0.50000000E+00  0.00000000E+00
  0.00000000E+00  0.22390244E+02  0.11713809E+02  0.50000000E+00  0.00000000E+00
  0.00000000E+00  0.22390244E+02  0.12689959E+02  0.50000000E+00  0.00000000E+00
  0.00000000E+00  0.22390244E+02  0.13666110E+02  0.50000000E+00  0.00000000E+00
  0.00000000E+00  0.22390244E+02  0.14642261E+02  0.50000000E+00  0.00000000E+00
  0.00000000E+00  0.22390244E+02  0.15618411E+02  0.50000000E+00  0.00000000E+00
  0.00000000E+00  0.22390244E+02  0.16594562E+02  0.50000000E+00  0.00000000E+00
  0.00000000E+00  0.22390244E+02  0.17570713E+02  0.50000000E+00  0.00000000E+00
  0.00000000E+00  0.22390244E+02  0.18546864E+02  0.50000000E+00  0.00000000E+00
  0.00000000E+00  0.22390244E+02  0.19523014E+02  0.50000000E+00  0.00000000E+00
  0.00000000E+00  0.22390244E+02  0.20499165E+02  0.49916266E+00  0.13840228E-09
  0.00000000E+00  0.24878049E+02  0.00000000E+00  0.50000000E+00  0.00000000E+00
  0.00000000E+00  0.24878049E+02  0.97614161E+00  0.50000000E+00  0.00000000E+00
  0.00000000E+00  0.24878049E+02  0.19522832E+01  0.50000000E+00  0.00000000E+00
  0.00000000E+00  0.24878049E+02  0.29284248E+01  0.50000000E+00  0.00000000E+00
  0.00000000E+00  0.24878049E+02  0.39045665E+01  0.50000000E+00  0.00000000E+00
  0.00000000E+00  0.24878049E+02  0.48807081E+01  0.50000000E+00  0.00000000E+00
  0.00000000E+00  0.24878049E+02  0.58568497E+01  0.50000000E+00  0.00000000E+00
  0.00000000E+00  0.24878049E+02  0.68329913E+01  0.50000000E+00  0.00000000E+00
  0.00000000E+00  0.24878049E+02  0.78091329E+01  0.50000000E+00  0.00000000E+00
  0.00000000E+00  0.24878049E+02  0.87852745E+01  0.50000000E+00  0.00000000E+00
  0.00000000E+00  0.24878049E+02  0.97614161E+01  0.50000000E+00  0.00000000E+00
  0.00000000E+00  0.24878049E+02  0.10737558E+02  0.50000000E+00  0.00000000E+00
  0.00000000E+00  0.24878049E+02  0.11713699E+02  0.50000000E+00  0.00000000E+00
  0.00000000E+00  0.24878049E+02  0.12689841E+02  0.50000000E+00  0.00000000E+00
  0.00000000E+00  0.24878049E+02  0.13665983E+02  0.50000000E+00  0.00000000E+00
  0.00000000E+00  0.24878049E+02  0.14642124E+02  0.50000000E+00  0.00000000E+00
  0.00000000E+00  0.24878049E+02  0.15618266E+02  0.50000000E+00  0.00000000E+00
  0.00000000E+00  0.24878049E+02  0.16594407E+02  0.50000000E+00  0.00000000E+00
  0.00000000E+00  0.24878049E+02  0.17570549E+02  0.50000000E+00  0.00000000E+00
  0.00000000E+00  0.24878049E+02  0.18546691E+02  0.50000000E+00  0.00000000E+00
  0.00000000E+00  0.24878049E+02  0.19522832E+02  0.50000000E+00  0.00000000E+00
  0.00000000E+00  0.24878049E+02  0.20498974E+02  0.49897125E+00  0.11193211E-09
  0.00000000E+00  0.27365854E+02  0.00000000E+00  0.50000000E+00  0.00000000E+00
  0.00000000E+00  0.27365854E+02  0.97612531E+00  0.50000000E+00  0.00000000E+00
  0.00000000E+00  0.27365854E+02  0.19522506E+01  0.50000000E+00  0.00000000E+00
  0.00000000E+00  0.27365854E+02  0.29283759E+01  0.50000000E+00  0.00000000E+00
  0.00000000E+00  0.27365854E+02  0.39045012E+01  0.50000000E+00  0.00000000E+00
  0.00000000E+00  0.27365854E+02  0.48806266E+01  0.50000000E+00  0.00000000E+00
  0.00000000E+00  0.27365854E+02  0.58567519E+01  0.50000000E+00  0.00000000E+00
  0.00000000E+00  0.27365854E+02  0.68328772E+01  0.50000000E+00  0.00000000E+00
  0.00000000E+00  0.27365854E+02  0.78090025E+01  0.50000000E+00  0.00000000E+00
  0.00000000E+00  0.27365854E+02  0.87851278E+01  0.50000000E+00  0.00000000E+00
  0.00000000E+00  0.27365854E+02  0.97612531E+01  0.50000000E+00  0.00000000E+00
  0.00000000E+00  0.27365854E+02  0.10737378E+02  0.50000000E+00  0.00000000E+00
  0.00000000E+00  0.27365854E+02  0.11713504E+02  0.50000000E+00  0.00000000E+00
  0.00000000E+00  0.27365854E+02  0.12689629E+02  0.50000000E+00  0.00000000E+00
  0.00000000E+00  0.27365854E+02  0.13665754E+02  0.50000000E+00  0.00000000E+00
  0.00000000E+00  0.27365854E+02  0.14641880E+02  0.50000000E+00  0.00000000E+00
  0.00000000E+00  0.27365854E+02  0.15618005E+02  0.50000000E+00  0.00000000E+00
  0.00000000E+00  0.27365854E+02  0.16594130E+02  0.50000000E+00  0.00000000E+00
  0.00000000E+00  0.27365854E+02  0.17570256E+02  0.50000000E+00  0.00000000E+00
  0.00000000E+00  0.27365854E+02  0.18546381E+02  0.50000000E+00  0.00000000E+00
  0.00000000E+00  0.27365854E+02  0.19522506E+02  0.50000000E+00  0.00000000E+00
  0.00000000E+00  0.27365854E+02  0.20498632E+02  0.49862820E+00  0.10804250E-09
  0.00000000E+00  0.29853659E+02  0.00000000E+00  0.50000000E+00  0.00000000E+00
  0.00000000E+00  0.29853659E+02  0.97610614E+00  0.50000000E+00  0.00000000E+00
  0.00000000E+00  0.29853659E+02  0.19522123E+01  0.50000000E+00  0.00000000E+00
  0.00000000E+00  0.29853659E+02  0.29283184E+01  0.50000000E+00  0.00000000E+00
  0.00000000E+00  0.29853659E+02  0.39044245E+01  0.50000000E+00  0.00000000E+00
  0.00000000E+00  0.29853659E+02  0.48805307E+01  0.50000000E+00  0.00000000E+00
  0.00000000E+00  0.29853659E+02  0.58566368E+01  0.50000000E+00  0.00000000E+00
  0.00000000E+00  0.29853659E+02  0.68327430E+01  0.50000000E+00  0.00000000E+00
  0.00000000E+00  0.29853659E+02  0.78088491E+01  0.50000000E+00  0.00000000E+00
  0.00000000E+00  0.29853659E+02  0.87849552E+01  0.50000000E+00  0.00000000E+00
  0.00000000E+00  0.29853659E+02  0.97610614E+01  0.50000000E+00  0.00000000E+00
  0.00000000E+00  0.29853659E+02  0.10737167E+02  0.50000000E+00  0.00000000E+00
  0.00000000E+00  0.29853659E+02  0.11713274E+02  0.50000000E+00  0.00000000E+00
  0.00000000E+00  0.29853659E+02  0.12689380E+02  0.50000000E+00  0.00000000E+00
  0.00000000E+00  0.29853659E+02  0.13665486E+02  0.50000000E+00  0.00000000E+00
  0.00000000E+00  0.29853659E+02  0.14641592E+02  0.50000000E+00  0.00000000E+00
  0.00000000E+00  0.29853659E+02  0.15617698E+02  0.50000000E+00  0.00000000E+00
  0.00000000E+00  0.29853659E+02  0.16593804E+02  0.50000000E+00  0.00000000E+00
  0.00000000E+00  0.29853659E+02  0.17569910E+02  0.50000000E+00  0.00000000E+00
  0.00000000E+00  0.29853659E+02  0.18546017E+02  0.50000000E+00  0.00000000E+00
  0.00000000E+00  0.29853659E+02  0.19522123E+02  0.50000000E+00  0.00000000E+00
  0.00000000E+00  0.29853659E+02  0.20498229E+02  0.49822468E+00  0.12158710E-09
  0.00000000E+00  0.32341463E+02  0.00000000E+00  0.50000000E+00  0.00000000E+00
  0.00000000E+00  0.32341463E+02  0.97610077E+00  0.50000000E+00  0.00000000E+00
  0.00000000E+00  0.32341463E+02  0.19522015E+01  0.50000000E+00  0.00000000E+00
  0.00000000E+00  0.32341463E+02  0.29283023E+01  0.50000000E+00  0.00000000E+00
  0.00000000E+00  0.32341463E+02  0.39044031E+01  0.50000000E+00  0.00000000E+00
  0.00000000E+00  0.32341463E+02  0.48805038E+01  0.50000000E+00  0.00000000E+00
  0.00000000E+00  0.32341463E+02  0.58566046E+01  0.50000000E+00  0.00000000E+00
  0.00000000E+00  0.32341463E+02  0.68327054E+01  0.50000000E+00  0.00000000E+00
  0.00000000E+00  0.32341463E+02  0.78088061E+01  0.50000000E+00  0.00000000E+00
  0.00000000E+00  0.32341463E+02  0.87849069E+01  0.50000000E+00  0.00000000E+00
  0.00000000E+00  0.32341463E+02  0.97610077E+01  0.50000000E+00  0.00000000E+00
  0.00000000E+00  0.32341463E+02  0.10737108E+02  0.50000000E+00  0.00000000E+00
  0.00000000E+00  0.32341463E+02  0.11713209E+02  0.50000000E+00  0.00000000E+00
  0.00000000E+00  0.32341463E+02  0.12689310E+02  0.50000000E+00  0.00000000E+00
  0.00000000E+00  0.32341463E+02  0.13665411E+02  0.50000000E+00  0.00000000E+00
  0.00000000E+00  0.32341463E+02  0.14641512E+02  0.50000000E+00  0.00000000E+00
  0.00000000E+00  0.32341463E+02  0.15617612E+02  0.50000000E+00  0.00000000E+00
  0.00000000E+00  0.32341463E+02  0.16593713E+02  0.50000000E+00  0.00000000E+00
  0.00000000E+00  0.32341463E+02  0.17569814E+02  0.50000000E+00  0.00000000E+00
  0.00000000E+00  0.32341463E+02  0.18545915E+02  0.50000000E+00  0.00000000E+00
  0.00000000E+00  0.32341463E+02  0.19522015E+02  0.50000000E+00  0.00000000E+00
  0.00000000E+00  0.32341463E+02  0.20498116E+02  0.49811167E+00  0.13887555E-09
  0.00000000E+00  0.34829268E+02  0.00000000E+00  0.50000000E+00  0.00000000E+00
  0.00000000E+00  0.34829268E+02  0.97611008E+00  0.50000000E+00  0.00000000E+00
  0.00000000E+00  0.34829268E+02  0.19522202E+01  0.50000000E+00  0.00000000E+00
  0.00000000E+00  0.34829268E+02  0.29283302E+01  0.50000000E+00  0.00000000E+00
  0.00000000E+00  0.34829268E+02  0.39044403E+01  0.50000000E+00  0.00000000E+00
  0.00000000E+00  0.34829268E+02  0.48805504E+01  0.50000000E+00  0.00000000E+00
  0.00000000E+00  0.34829268E+02  0.58566605E+01  0.50000000E+00  0.00000000E+00
  0.00000000E+00  0.34829268E+02  0.68327705E+01  0.50000000E+00  0.00000000E+00
  0.00000000E+00  0.34829268E+02  0.78088806E+01  0.50000000E+00  0.00000000E+00
  0.00000000E+00  0.34829268E+02  0.87849907E+01  0.50000000E+00  0.00000000E+00
  0.00000000E+00  0.34829268E+02  0.97611008E+01  0.50000000E+00  0.00000000E+00
  0.00000000E+00  0.34829268E+02  0.10737211E+02  0.50000000E+00  0.00000000E+00
  0.00000000E+00  0.34829268E+02  0.11713321E+02  0.50000000E+00  0.00000000E+00
  0.00000000E+00  0.34829268E+02  0.12689431E+02  0.50000000E+00  0.00000000E+00
  0.00000000E+00  0.34829268E+02  0.13665541E+02  0.50000000E+00  0.00000000E+00
  0.00000000E+00  0.34829268E+02  0.14641651E+02  0.50000000E+00  0.00000000E+00
  0.00000000E+00  0.34829268E+02  0.15617761E+02  0.50000000E+00  0.00000000E+00
  0.00000000E+00  0.34829268E+02  0.16593871E+02  0.50000000E+00  0.00000000E+00
  0.00000000E+00  0.34829268E+02  0.17569981E+02  0.50000000E+00  0.00000000E+00
  0.00000000E+00  0.34829268E+02  0.18546091E+02  0.50000000E+00  0.00000000E+00
  0.00000000E+00  0.34829268E+02  0.19522202E+02  0.50000000E+00  0.00000000E+00
  0.00000000E+00  0.34829268E+02  0.20498312E+02  0.49830755E+00  0.11581657E-09
  0.00000000E+00  0.37317073E+02  0.00000000E+00  0.50000000E+00  0.00000000E+00
  0.00000000E+00  0.37317073E+02  0.97608945E+00  0.50000000E+00  0.00000000E+00
  0.00000000E+00  0.37317073E+02  0.19521789E+01  0.50000000E+00  0.00000000E+00
  0.00000000E+00  0.37317073E+02  0.29282684E+01  0.50000000E+00  0.00000000E+00
  0.00000000E+00  0.37317073E+02  0.39043578E+01  0.50000000E+00  0.00000000E+00
  0.00000000E+00  0.37317073E+02  0.48804473E+01  0.50000000E+00  0.00000000E+00
  0.00000000E+00  0.37317073E+02  0.58565367E+01  0.50000000E+00  0.00000000E+00
  0.00000000E+00  0.37317073E+02  0.68326262E+01  0.50000000E+00  0.00000000E+00
  0.00000000E+00  0.37317073E+02  0.78087156E+01  0.50000000E+00  0.00000000E+00
  0.00000000E+00  0.37317073E+02  0.87848051E+01  0.50000000E+00  0.00000000E+00
  0.00000000E+00  0.37317073E+02  0.97608945E+01  0.50000000E+00  0.00000000E+00
  0.00000000E+00  0.37317073E+02  0.10736984E+02  0.50000000E+00  0.00000000E+00
  0.00000000E+00  0.37317073E+02  0.11713073E+02  0.50000000E+00  0.00000000E+00
  0.00000000E+00  0.37317073E+02  0.12689163E+02  0.50000000E+00  0.00000000E+00
  0.00000000E+00  0.37317073E+02  0.13665252E+02  0.50000000E+00  0.00000000E+00
  0.00000000E+00  0.37317073E+02  0.14641342E+02  0.50000000E+00  0.00000000E+00
  0.00000000E+00  0.37317073E+02  0.15617431E+02  0.50000000E+00  0.00000000E+00
  0.00000000E+00  0.37317073E+02  0.16593521E+02  0.50000000E+00  0.00000000E+00
  0.00000000E+00  0.37317073E+02  0.17569610E+02  0.50000000E+00  0.00000000E+00
  0.00000000E+00  0.37317073E+02  0.18545700E+02  0.50000000E+00  0.00000000E+00
  0.00000000E+00  0.37317073E+02  0.19521789E+02  0.50000000E+00  0.00000000E+00
  0.00000000E+00  0.37317073E+02  0.20497878E+02  0.49787341E+00  0.20603455E-09
  0.00000000E+00  0.39804878E+02  0.00000000E+00  0.50000000E+00  0.00000000E+00
  0.00000000E+00  0.39804878E+02  0.97608286E+00  0.50000000E+00  0.00000000E+00
  0.00000000E+00  0.39804878E+02  0.19521657E+01  0.50000000E+00  0.00000000E+00
  0.00000000E+00  0.39804878E+02  0.29282486E+01  0.50000000E+00  0.00000000E+00
  0.00000000E+00  0.39804878E+02  0.39043314E+01  0.50000000E+00  0.00000000E+00
  0.00000000E+00  0.39804878E+02  0.48804143E+01  0.50000000E+00  0.00000000E+00
  0.00000000E+00  0.39804878E+02  0.58564972E+01  0.50000000E+00  0.00000000E+00
  0.00000000E+00  0.39804878E+02  0.68325800E+01  0.50000000E+00  0.00000000E+00
  0.00000000E+00  0.39804878E+02  0.78086629E+01  0.50000000E+00  0.00000000E+00
  0.00000000E+00  0.39804878E+02  0.87847457E+01  0.50000000E+00  0.00000000E+00
  0.00000000E+00  0.39804878E+02  0.97608286E+01  0.50000000E+00  0.00000000E+00
  0.00000000E+00  0.39804878E+02  0.10736911E+02  0.50000000E+00  0.00000000E+00
  0.00000000E+00  0.39804878E+02  0.11712994E+02  0.50000000E+00  0.00000000E+00
  0.00000000E+00  0.39804878E+02  0.12689077E+02  0.50000000E+00  0.00000000E+00
  0.00000000E+00  0.39804878E+02  0.13665160E+02  0.50000000E+00  0.00000000E+00
  0.00000000E+00  0.39804878E+02  0.14641243E+02  0.50000000E+00  0.00000000E+00