title="2d K section "
variables="x","z","Kx","logKx","Kz","logKz","porosity"
zone i=    22, j=    42,T="Initial K at t=0"
   0.0000000E+00   0.0000000E+00   0.4721967E-04  -0.4325877E+01   0.4721967E-04  -0.4325877E+01   0.3000000E+00
   0.0000000E+00   0.9761905E+00   0.3162066E-04  -0.4500029E+01   0.3162066E-04  -0.4500029E+01   0.3000000E+00
   0.0000000E+00   0.1952381E+01   0.1025341E-04  -0.4989132E+01   0.1025341E-04  -0.4989132E+01   0.3000000E+00
   0.0000000E+00   0.2928571E+01   0.1576529E-04  -0.4802298E+01   0.1576529E-04  -0.4802298E+01   0.3000000E+00
   0.0000000E+00   0.3904762E+01   0.9917596E-05  -0.5003594E+01   0.9917596E-05  -0.5003594E+01   0.3000000E+00
   0.0000000E+00   0.4880952E+01   0.1220701E-04  -0.4913391E+01   0.1220701E-04  -0.4913391E+01   0.3000000E+00
   0.0000000E+00   0.5857143E+01   0.3070147E-04  -0.4512841E+01   0.3070147E-04  -0.4512841E+01   0.3000000E+00
   0.0000000E+00   0.6833333E+01   0.4339354E-04  -0.4362575E+01   0.4339354E-04  -0.4362575E+01   0.3000000E+00
   0.0000000E+00   0.7809524E+01   0.6371440E-04  -0.4195762E+01   0.6371440E-04  -0.4195762E+01   0.3000000E+00
   0.0000000E+00   0.8785714E+01   0.8750628E-04  -0.4057961E+01   0.8750628E-04  -0.4057961E+01   0.3000000E+00
   0.0000000E+00   0.9761905E+01   0.1339425E-03  -0.3873082E+01   0.1339425E-03  -0.3873082E+01   0.3000000E+00
   0.0000000E+00   0.1073810E+02   0.9315510E-07  -0.7030793E+01   0.9315510E-07  -0.7030793E+01   0.3000000E+00
   0.0000000E+00   0.1171429E+02   0.3692784E-07  -0.7432646E+01   0.3692784E-07  -0.7432646E+01   0.3000000E+00
   0.0000000E+00   0.1269048E+02   0.1538151E-07  -0.7813001E+01   0.1538151E-07  -0.7813001E+01   0.3000000E+00
   0.0000000E+00   0.1366667E+02   0.1664402E-08  -0.8778742E+01   0.1664402E-08  -0.8778742E+01   0.3000000E+00
   0.0000000E+00   0.1464286E+02   0.4824783E-08  -0.8316522E+01   0.4824783E-08  -0.8316522E+01   0.3000000E+00
   0.0000000E+00   0.1561905E+02   0.1856774E-03  -0.3731241E+01   0.1856774E-03  -0.3731241E+01   0.3000000E+00
   0.0000000E+00   0.1659524E+02   0.1360756E-03  -0.3866220E+01   0.1360756E-03  -0.3866220E+01   0.3000000E+00
   0.0000000E+00   0.1757143E+02   0.5059792E-04  -0.4295867E+01   0.5059792E-04  -0.4295867E+01   0.3000000E+00
   0.0000000E+00   0.1854762E+02   0.1296963E-04  -0.4887072E+01   0.1296963E-04  -0.4887072E+01   0.3000000E+00
   0.0000000E+00   0.1952381E+02   0.2208305E-04  -0.4655941E+01   0.2208305E-04  -0.4655941E+01   0.3000000E+00
   0.0000000E+00   0.2050000E+02   0.2208305E-04  -0.4655941E+01   0.2208305E-04  -0.4655941E+01   0.3000000E+00
   0.2487805E+01   0.0000000E+00   0.3385581E-04  -0.4470367E+01   0.3385581E-04  -0.4470367E+01   0.3000000E+00
   0.2487805E+01   0.9761905E+00   0.3107522E-04  -0.4507586E+01   0.3107522E-04  -0.4507586E+01   0.3000000E+00
   0.2487805E+01   0.1952381E+01   0.2290398E-04  -0.4640089E+01   0.2290398E-04  -0.4640089E+01   0.3000000E+00
   0.2487805E+01   0.2928571E+01   0.1215463E-04  -0.4915258E+01   0.1215463E-04  -0.4915258E+01   0.3000000E+00
   0.2487805E+01   0.3904762E+01   0.2066849E-04  -0.4684691E+01   0.2066849E-04  -0.4684691E+01   0.3000000E+00
   0.2487805E+01   0.4880952E+01   0.1332858E-04  -0.4875216E+01   0.1332858E-04  -0.4875216E+01   0.3000000E+00
   0.2487805E+01   0.5857143E+01   0.1755275E-04  -0.4755655E+01   0.1755275E-04  -0.4755655E+01   0.3000000E+00
   0.2487805E+01   0.6833333E+01   0.2464590E-04  -0.4608255E+01   0.2464590E-04  -0.4608255E+01   0.3000000E+00
   0.2487805E+01   0.7809524E+01   0.3987344E-04  -0.4399316E+01   0.3987344E-04  -0.4399316E+01   0.3000000E+00
   0.2487805E+01   0.8785714E+01   0.4153392E-04  -0.4381597E+01   0.4153392E-04  -0.4381597E+01   0.3000000E+00
   0.2487805E+01   0.9761905E+01   0.4808694E-04  -0.4317973E+01   0.4808694E-04  -0.4317973E+01   0.3000000E+00
   0.2487805E+01   0.1073810E+02   0.5506233E-07  -0.7259145E+01   0.5506233E-07  -0.7259145E+01   0.3000000E+00
   0.2487805E+01   0.1171429E+02   0.1878513E-07  -0.7726186E+01   0.1878513E-07  -0.7726186E+01   0.3000000E+00
   0.2487805E+01   0.1269048E+02   0.2946390E-07  -0.7530710E+01   0.2946390E-07  -0.7530710E+01   0.3000000E+00
   0.2487805E+01   0.1366667E+02   0.1765759E-07  -0.7753069E+01   0.1765759E-07  -0.7753069E+01   0.3000000E+00
   0.2487805E+01   0.1464286E+02   0.2294558E-03  -0.3639301E+01   0.2294558E-03  -0.3639301E+01   0.3000000E+00
   0.2487805E+01   0.1561905E+02   0.1728822E-03  -0.3762250E+01   0.1728822E-03  -0.3762250E+01   0.3000000E+00
   0.2487805E+01   0.1659524E+02   0.1990808E-03  -0.3700971E+01   0.1990808E-03  -0.3700971E+01   0.3000000E+00
   0.2487805E+01   0.1757143E+02   0.6112436E-04  -0.4213786E+01   0.6112436E-04  -0.4213786E+01   0.3000000E+00
   0.2487805E+01   0.1854762E+02   0.3462966E-04  -0.4460552E+01   0.3462966E-04  -0.4460552E+01   0.3000000E+00
   0.2487805E+01   0.1952381E+02   0.2028964E-04  -0.4692726E+01   0.2028964E-04  -0.4692726E+01   0.3000000E+00
   0.2487805E+01   0.2050000E+02   0.2028964E-04  -0.4692726E+01   0.2028964E-04  -0.4692726E+01   0.3000000E+00
   0.4975610E+01   0.0000000E+00   0.7279961E-04  -0.4137871E+01   0.7279961E-04  -0.4137871E+01   0.3000000E+00
   0.4975610E+01   0.9761905E+00   0.3559875E-04  -0.4448565E+01   0.3559875E-04  -0.4448565E+01   0.3000000E+00
   0.4975610E+01   0.1952381E+01   0.3596012E-04  -0.4444179E+01   0.3596012E-04  -0.4444179E+01   0.3000000E+00
   0.4975610E+01   0.2928571E+01   0.2219375E-04  -0.4653769E+01   0.2219375E-04  -0.4653769E+01   0.3000000E+00
   0.4975610E+01   0.3904762E+01   0.6887516E-05  -0.5161937E+01   0.6887516E-05  -0.5161937E+01   0.3000000E+00
   0.4975610E+01   0.4880952E+01   0.1223879E-04  -0.4912261E+01   0.1223879E-04  -0.4912261E+01   0.3000000E+00
   0.4975610E+01   0.5857143E+01   0.1452993E-04  -0.4837737E+01   0.1452993E-04  -0.4837737E+01   0.3000000E+00
   0.4975610E+01   0.6833333E+01   0.1788050E-04  -0.4747620E+01   0.1788050E-04  -0.4747620E+01   0.3000000E+00
   0.4975610E+01   0.7809524E+01   0.3460889E-04  -0.4460812E+01   0.3460889E-04  -0.4460812E+01   0.3000000E+00
   0.4975610E+01   0.8785714E+01   0.4620142E-04  -0.4335345E+01   0.4620142E-04  -0.4335345E+01   0.3000000E+00
   0.4975610E+01   0.9761905E+01   0.4823624E-04  -0.4316627E+01   0.4823624E-04  -0.4316627E+01   0.3000000E+00
   0.4975610E+01   0.1073810E+02   0.8636227E-08  -0.8063676E+01   0.8636227E-08  -0.8063676E+01   0.3000000E+00
   0.4975610E+01   0.1171429E+02   0.8707465E-07  -0.7060108E+01   0.8707465E-07  -0.7060108E+01   0.3000000E+00
   0.4975610E+01   0.1269048E+02   0.5672221E-07  -0.7246247E+01   0.5672221E-07  -0.7246247E+01   0.3000000E+00
   0.4975610E+01   0.1366667E+02   0.2646878E-07  -0.7577266E+01   0.2646878E-07  -0.7577266E+01   0.3000000E+00
   0.4975610E+01   0.1464286E+02   0.2875827E-03  -0.3541237E+01   0.2875827E-03  -0.3541237E+01   0.3000000E+00
   0.4975610E+01   0.1561905E+02   0.1141383E-03  -0.3942569E+01   0.1141383E-03  -0.3942569E+01   0.3000000E+00
   0.4975610E+01   0.1659524E+02   0.1653742E-03  -0.3781532E+01   0.1653742E-03  -0.3781532E+01   0.3000000E+00
   0.4975610E+01   0.1757143E+02   0.9339245E-04  -0.4029688E+01   0.9339245E-04  -0.4029688E+01   0.3000000E+00
   0.4975610E+01   0.1854762E+02   0.4231369E-04  -0.4373519E+01   0.4231369E-04  -0.4373519E+01   0.3000000E+00
   0.4975610E+01   0.1952381E+02   0.4358489E-04  -0.4360664E+01   0.4358489E-04  -0.4360664E+01   0.3000000E+00
   0.4975610E+01   0.2050000E+02   0.4358489E-04  -0.4360664E+01   0.4358489E-04  -0.4360664E+01   0.3000000E+00
   0.7463415E+01   0.0000000E+00   0.2583449E-04  -0.4587800E+01   0.2583449E-04  -0.4587800E+01   0.3000000E+00
   0.7463415E+01   0.9761905E+00   0.2903235E-04  -0.4537118E+01   0.2903235E-04  -0.4537118E+01   0.3000000E+00
   0.7463415E+01   0.1952381E+01   0.8175366E-04  -0.4087493E+01   0.8175366E-04  -0.4087493E+01   0.3000000E+00
   0.7463415E+01   0.2928571E+01   0.3100072E-04  -0.4508628E+01   0.3100072E-04  -0.4508628E+01   0.3000000E+00
   0.7463415E+01   0.3904762E+01   0.4822177E-04  -0.4316757E+01   0.4822177E-04  -0.4316757E+01   0.3000000E+00
   0.7463415E+01   0.4880952E+01   0.2520420E-04  -0.4598527E+01   0.2520420E-04  -0.4598527E+01   0.3000000E+00
   0.7463415E+01   0.5857143E+01   0.2590952E-04  -0.4586541E+01   0.2590952E-04  -0.4586541E+01   0.3000000E+00
   0.7463415E+01   0.6833333E+01   0.2053664E-04  -0.4687471E+01   0.2053664E-04  -0.4687471E+01   0.3000000E+00
   0.7463415E+01   0.7809524E+01   0.2981497E-04  -0.4525566E+01   0.2981497E-04  -0.4525566E+01   0.3000000E+00
   0.7463415E+01   0.8785714E+01   0.5200868E-04  -0.4283924E+01   0.5200868E-04  -0.4283924E+01   0.3000000E+00
   0.7463415E+01   0.9761905E+01   0.4386473E-04  -0.4357885E+01   0.4386473E-04  -0.4357885E+01   0.3000000E+00
   0.7463415E+01   0.1073810E+02   0.2995708E-07  -0.7523500E+01   0.2995708E-07  -0.7523500E+01   0.3000000E+00
   0.7463415E+01   0.1171429E+02   0.6309653E-07  -0.7199994E+01   0.6309653E-07  -0.7199994E+01   0.3000000E+00
   0.7463415E+01   0.1269048E+02   0.4186147E-07  -0.7378186E+01   0.4186147E-07  -0.7378186E+01   0.3000000E+00
   0.7463415E+01   0.1366667E+02   0.5964235E-07  -0.7224445E+01   0.5964235E-07  -0.7224445E+01   0.3000000E+00
   0.7463415E+01   0.1464286E+02   0.9194684E-04  -0.4036463E+01   0.9194684E-04  -0.4036463E+01   0.3000000E+00
   0.7463415E+01   0.1561905E+02   0.1254504E-03  -0.3901528E+01   0.1254504E-03  -0.3901528E+01   0.3000000E+00
   0.7463415E+01   0.1659524E+02   0.7248724E-04  -0.4139738E+01   0.7248724E-04  -0.4139738E+01   0.3000000E+00
   0.7463415E+01   0.1757143E+02   0.6004598E-04  -0.4221516E+01   0.6004598E-04  -0.4221516E+01   0.3000000E+00
   0.7463415E+01   0.1854762E+02   0.5298509E-04  -0.4275846E+01   0.5298509E-04  -0.4275846E+01   0.3000000E+00
   0.7463415E+01   0.1952381E+02   0.5342670E-04  -0.4272242E+01   0.5342670E-04  -0.4272242E+01   0.3000000E+00
   0.7463415E+01   0.2050000E+02   0.5342670E-04  -0.4272242E+01   0.5342670E-04  -0.4272242E+01   0.3000000E+00
   0.9951220E+01   0.0000000E+00   0.5127537E-04  -0.4290091E+01   0.5127537E-04  -0.4290091E+01   0.3000000E+00
   0.9951220E+01   0.9761905E+00   0.6173868E-04  -0.4209443E+01   0.6173868E-04  -0.4209443E+01   0.3000000E+00
   0.9951220E+01   0.1952381E+01   0.1460590E-03  -0.3835472E+01   0.1460590E-03  -0.3835472E+01   0.3000000E+00
   0.9951220E+01   0.2928571E+01   0.1386580E-03  -0.3858055E+01   0.1386580E-03  -0.3858055E+01   0.3000000E+00
   0.9951220E+01   0.3904762E+01   0.4784232E-04  -0.4320188E+01   0.4784232E-04  -0.4320188E+01   0.3000000E+00
   0.9951220E+01   0.4880952E+01   0.4918608E-04  -0.4308158E+01   0.4918608E-04  -0.4308158E+01   0.3000000E+00
   0.9951220E+01   0.5857143E+01   0.8173731E-04  -0.4087580E+01   0.8173731E-04  -0.4087580E+01   0.3000000E+00
   0.9951220E+01   0.6833333E+01   0.2940047E-04  -0.4531646E+01   0.2940047E-04  -0.4531646E+01   0.3000000E+00
   0.9951220E+01   0.7809524E+01   0.2685926E-04  -0.4570906E+01   0.2685926E-04  -0.4570906E+01   0.3000000E+00
   0.9951220E+01   0.8785714E+01   0.4612295E-04  -0.4336083E+01   0.4612295E-04  -0.4336083E+01   0.3000000E+00
   0.9951220E+01   0.9761905E+01   0.3942147E-04  -0.4404267E+01   0.3942147E-04  -0.4404267E+01   0.3000000E+00
   0.9951220E+01   0.1073810E+02   0.1145677E-06  -0.6940938E+01   0.1145677E-06  -0.6940938E+01   0.3000000E+00
   0.9951220E+01   0.1171429E+02   0.1079713E-06  -0.6966692E+01   0.1079713E-06  -0.6966692E+01   0.3000000E+00
   0.9951220E+01   0.1269048E+02   0.2257811E-06  -0.6646312E+01   0.2257811E-06  -0.6646312E+01   0.3000000E+00
   0.9951220E+01   0.1366667E+02   0.1851869E-06  -0.6732390E+01   0.1851869E-06  -0.6732390E+01   0.3000000E+00
   0.9951220E+01   0.1464286E+02   0.8754129E-04  -0.4057787E+01   0.8754129E-04  -0.4057787E+01   0.3000000E+00
   0.9951220E+01   0.1561905E+02   0.5568499E-04  -0.4254262E+01   0.5568499E-04  -0.4254262E+01   0.3000000E+00
   0.9951220E+01   0.1659524E+02   0.6823861E-04  -0.4165970E+01   0.6823861E-04  -0.4165970E+01   0.3000000E+00
   0.9951220E+01   0.1757143E+02   0.3668289E-04  -0.4435536E+01   0.3668289E-04  -0.4435536E+01   0.3000000E+00
   0.9951220E+01   0.1854762E+02   0.7606670E-04  -0.4118805E+01   0.7606670E-04  -0.4118805E+01   0.3000000E+00
   0.9951220E+01   0.1952381E+02   0.4355875E-04  -0.4360925E+01   0.4355875E-04  -0.4360925E+01   0.3000000E+00
   0.9951220E+01   0.2050000E+02   0.4355875E-04  -0.4360925E+01   0.4355875E-04  -0.4360925E+01   0.3000000E+00
   0.1243902E+02   0.0000000E+00   0.5482304E-04  -0.4261037E+01   0.5482304E-04  -0.4261037E+01   0.3000000E+00
   0.1243902E+02   0.9761905E+00   0.8447119E-04  -0.4073291E+01   0.8447119E-04  -0.4073291E+01   0.3000000E+00
   0.1243902E+02   0.1952381E+01   0.9569926E-04  -0.4019091E+01   0.9569926E-04  -0.4019091E+01   0.3000000E+00
   0.1243902E+02   0.2928571E+01   0.1774184E-03  -0.3751001E+01   0.1774184E-03  -0.3751001E+01   0.3000000E+00
   0.1243902E+02   0.3904762E+01   0.4518705E-04  -0.4344986E+01   0.4518705E-04  -0.4344986E+01   0.3000000E+00
   0.1243902E+02   0.4880952E+01   0.4666575E-04  -0.4331002E+01   0.4666575E-04  -0.4331002E+01   0.3000000E+00
   0.1243902E+02   0.5857143E+01   0.3521988E-04  -0.4453212E+01   0.3521988E-04  -0.4453212E+01   0.3000000E+00
   0.1243902E+02   0.6833333E+01   0.2918079E-04  -0.4534903E+01   0.2918079E-04  -0.4534903E+01   0.3000000E+00
   0.1243902E+02   0.7809524E+01   0.3054529E-04  -0.4515056E+01   0.3054529E-04  -0.4515056E+01   0.3000000E+00
   0.1243902E+02   0.8785714E+01   0.3152278E-04  -0.4501375E+01   0.3152278E-04  -0.4501375E+01   0.3000000E+00
   0.1243902E+02   0.9761905E+01   0.4111243E-04  -0.4386027E+01   0.4111243E-04  -0.4386027E+01   0.3000000E+00
   0.1243902E+02   0.1073810E+02   0.3923094E-07  -0.7406371E+01   0.3923094E-07  -0.7406371E+01   0.3000000E+00
   0.1243902E+02   0.1171429E+02   0.4574492E-06  -0.6339657E+01   0.4574492E-06  -0.6339657E+01   0.3000000E+00
   0.1243902E+02   0.1269048E+02   0.3602023E-06  -0.6443454E+01   0.3602023E-06  -0.6443454E+01   0.3000000E+00
   0.1243902E+02   0.1366667E+02   0.1858177E-06  -0.6730913E+01   0.1858177E-06  -0.6730913E+01   0.3000000E+00
   0.1243902E+02   0.1464286E+02   0.5856344E-04  -0.4232373E+01   0.5856344E-04  -0.4232373E+01   0.3000000E+00
   0.1243902E+02   0.1561905E+02   0.5809099E-04  -0.4235891E+01   0.5809099E-04  -0.4235891E+01   0.3000000E+00
   0.1243902E+02   0.1659524E+02   0.4338052E-04  -0.4362705E+01   0.4338052E-04  -0.4362705E+01   0.3000000E+00
   0.1243902E+02   0.1757143E+02   0.3931124E-04  -0.4405483E+01   0.3931124E-04  -0.4405483E+01   0.3000000E+00
   0.1243902E+02   0.1854762E+02   0.1979661E-04  -0.4703409E+01   0.1979661E-04  -0.4703409E+01   0.3000000E+00
   0.1243902E+02   0.1952381E+02   0.5420161E-04  -0.4265988E+01   0.5420161E-04  -0.4265988E+01   0.3000000E+00
   0.1243902E+02   0.2050000E+02   0.5420161E-04  -0.4265988E+01   0.5420161E-04  -0.4265988E+01   0.3000000E+00
   0.1492683E+02   0.0000000E+00   0.3691842E-04  -0.4432757E+01   0.3691842E-04  -0.4432757E+01   0.3000000E+00
   0.1492683E+02   0.9761905E+00   0.7856376E-04  -0.4104778E+01   0.7856376E-04  -0.4104778E+01   0.3000000E+00
   0.1492683E+02   0.1952381E+01   0.9518388E-04  -0.4021437E+01   0.9518388E-04  -0.4021437E+01   0.3000000E+00
   0.1492683E+02   0.2928571E+01   0.5121900E-04  -0.4290569E+01   0.5121900E-04  -0.4290569E+01   0.3000000E+00
   0.1492683E+02   0.3904762E+01   0.3803895E-04  -0.4419772E+01   0.3803895E-04  -0.4419772E+01   0.3000000E+00
   0.1492683E+02   0.4880952E+01   0.1786441E-04  -0.4748011E+01   0.1786441E-04  -0.4748011E+01   0.3000000E+00
   0.1492683E+02   0.5857143E+01   0.1212671E-04  -0.4916257E+01   0.1212671E-04  -0.4916257E+01   0.3000000E+00
   0.1492683E+02   0.6833333E+01   0.8238436E-05  -0.5084155E+01   0.8238436E-05  -0.5084155E+01   0.3000000E+00
   0.1492683E+02   0.7809524E+01   0.1360736E-04  -0.4866226E+01   0.1360736E-04  -0.4866226E+01   0.3000000E+00
   0.1492683E+02   0.8785714E+01   0.1420808E-04  -0.4847465E+01   0.1420808E-04  -0.4847465E+01   0.3000000E+00
   0.1492683E+02   0.9761905E+01   0.1684259E-04  -0.4773591E+01   0.1684259E-04  -0.4773591E+01   0.3000000E+00
   0.1492683E+02   0.1073810E+02   0.4934152E-07  -0.7306788E+01   0.4934152E-07  -0.7306788E+01   0.3000000E+00
   0.1492683E+02   0.1171429E+02   0.1047279E-06  -0.6979937E+01   0.1047279E-06  -0.6979937E+01   0.3000000E+00
   0.1492683E+02   0.1269048E+02   0.6168038E-07  -0.7209853E+01   0.6168038E-07  -0.7209853E+01   0.3000000E+00
   0.1492683E+02   0.1366667E+02   0.3909779E-07  -0.7407848E+01   0.3909779E-07  -0.7407848E+01   0.3000000E+00
   0.1492683E+02   0.1464286E+02   0.3583448E-04  -0.4445699E+01   0.3583448E-04  -0.4445699E+01   0.3000000E+00
   0.1492683E+02   0.1561905E+02   0.3983757E-04  -0.4399707E+01   0.3983757E-04  -0.4399707E+01   0.3000000E+00
   0.1492683E+02   0.1659524E+02   0.3162066E-04  -0.4500029E+01   0.3162066E-04  -0.4500029E+01   0.3000000E+00
   0.1492683E+02   0.1757143E+02   0.4801006E-04  -0.4318668E+01   0.4801006E-04  -0.4318668E+01   0.3000000E+00
   0.1492683E+02   0.1854762E+02   0.2359207E-04  -0.4627234E+01   0.2359207E-04  -0.4627234E+01   0.3000000E+00
   0.1492683E+02   0.1952381E+02   0.3809986E-04  -0.4419077E+01   0.3809986E-04  -0.4419077E+01   0.3000000E+00
   0.1492683E+02   0.2050000E+02   0.3809986E-04  -0.4419077E+01   0.3809986E-04  -0.4419077E+01   0.3000000E+00
   0.1741463E+02   0.0000000E+00   0.6133254E-04  -0.4212309E+01   0.6133254E-04  -0.4212309E+01   0.3000000E+00
   0.1741463E+02   0.9761905E+00   0.1646317E-03  -0.3783487E+01   0.1646317E-03  -0.3783487E+01   0.3000000E+00
   0.1741463E+02   0.1952381E+01   0.1384640E-03  -0.3858663E+01   0.1384640E-03  -0.3858663E+01   0.3000000E+00
   0.1741463E+02   0.2928571E+01   0.5866308E-04  -0.4231635E+01   0.5866308E-04  -0.4231635E+01   0.3000000E+00
   0.1741463E+02   0.3904762E+01   0.3503370E-04  -0.4455514E+01   0.3503370E-04  -0.4455514E+01   0.3000000E+00
   0.1741463E+02   0.4880952E+01   0.1228784E-04  -0.4910524E+01   0.1228784E-04  -0.4910524E+01   0.3000000E+00
   0.1741463E+02   0.5857143E+01   0.9417885E-05  -0.5026047E+01   0.9417885E-05  -0.5026047E+01   0.3000000E+00
   0.1741463E+02   0.6833333E+01   0.4218631E-05  -0.5374829E+01   0.4218631E-05  -0.5374829E+01   0.3000000E+00
   0.1741463E+02   0.7809524E+01   0.4407954E-05  -0.5355763E+01   0.4407954E-05  -0.5355763E+01   0.3000000E+00
   0.1741463E+02   0.8785714E+01   0.4157070E-05  -0.5381213E+01   0.4157070E-05  -0.5381213E+01   0.3000000E+00
   0.1741463E+02   0.9761905E+01   0.1166521E-04  -0.4933108E+01   0.1166521E-04  -0.4933108E+01   0.3000000E+00
   0.1741463E+02   0.1073810E+02   0.4701426E-08  -0.8327770E+01   0.4701426E-08  -0.8327770E+01   0.3000000E+00
   0.1741463E+02   0.1171429E+02   0.1332132E-07  -0.7875453E+01   0.1332132E-07  -0.7875453E+01   0.3000000E+00
   0.1741463E+02   0.1269048E+02   0.7850411E-08  -0.8105108E+01   0.7850411E-08  -0.8105108E+01   0.3000000E+00
   0.1741463E+02   0.1366667E+02   0.1588326E-07  -0.7799060E+01   0.1588326E-07  -0.7799060E+01   0.3000000E+00
   0.1741463E+02   0.1464286E+02   0.4841020E-04  -0.4315063E+01   0.4841020E-04  -0.4315063E+01   0.3000000E+00
   0.1741463E+02   0.1561905E+02   0.3995327E-04  -0.4398448E+01   0.3995327E-04  -0.4398448E+01   0.3000000E+00
   0.1741463E+02   0.1659524E+02   0.6136935E-04  -0.4212048E+01   0.6136935E-04  -0.4212048E+01   0.3000000E+00
   0.1741463E+02   0.1757143E+02   0.5327731E-04  -0.4273458E+01   0.5327731E-04  -0.4273458E+01   0.3000000E+00
   0.1741463E+02   0.1854762E+02   0.4245780E-04  -0.4372043E+01   0.4245780E-04  -0.4372043E+01   0.3000000E+00
   0.1741463E+02   0.1952381E+02   0.6066158E-04  -0.4217086E+01   0.6066158E-04  -0.4217086E+01   0.3000000E+00
   0.1741463E+02   0.2050000E+02   0.6066158E-04  -0.4217086E+01   0.6066158E-04  -0.4217086E+01   0.3000000E+00
   0.1990244E+02   0.0000000E+00   0.1377183E-03  -0.3861008E+01   0.1377183E-03  -0.3861008E+01   0.3000000E+00
   0.1990244E+02   0.9761905E+00   0.1518375E-03  -0.3818621E+01   0.1518375E-03  -0.3818621E+01   0.3000000E+00
   0.1990244E+02   0.1952381E+01   0.1212932E-03  -0.3916164E+01   0.1212932E-03  -0.3916164E+01   0.3000000E+00
   0.1990244E+02   0.2928571E+01   0.6282861E-04  -0.4201843E+01   0.6282861E-04  -0.4201843E+01   0.3000000E+00
   0.1990244E+02   0.3904762E+01   0.5486143E-04  -0.4260733E+01   0.5486143E-04  -0.4260733E+01   0.3000000E+00
   0.1990244E+02   0.4880952E+01   0.1914441E-04  -0.4717958E+01   0.1914441E-04  -0.4717958E+01   0.3000000E+00
   0.1990244E+02   0.5857143E+01   0.1460130E-04  -0.4835608E+01   0.1460130E-04  -0.4835608E+01   0.3000000E+00
   0.1990244E+02   0.6833333E+01   0.4981398E-05  -0.5302649E+01   0.4981398E-05  -0.5302649E+01   0.3000000E+00
   0.1990244E+02   0.7809524E+01   0.3893508E-05  -0.5409659E+01   0.3893508E-05  -0.5409659E+01   0.3000000E+00
   0.1990244E+02   0.8785714E+01   0.9214797E-05  -0.5035514E+01   0.9214797E-05  -0.5035514E+01   0.3000000E+00
   0.1990244E+02   0.9761905E+01   0.3051171E-04  -0.4515533E+01   0.3051171E-04  -0.4515533E+01   0.3000000E+00
   0.1990244E+02   0.1073810E+02   0.9283753E-08  -0.8032276E+01   0.9283753E-08  -0.8032276E+01   0.3000000E+00
   0.1990244E+02   0.1171429E+02   0.2289574E-08  -0.8640245E+01   0.2289574E-08  -0.8640245E+01   0.3000000E+00
   0.1990244E+02   0.1269048E+02   0.6605917E-08  -0.8180067E+01   0.6605917E-08  -0.8180067E+01   0.3000000E+00
   0.1990244E+02   0.1366667E+02   0.3117919E-08  -0.8506135E+01   0.3117919E-08  -0.8506135E+01   0.3000000E+00
   0.1990244E+02   0.1464286E+02   0.3570214E-04  -0.4447306E+01   0.3570214E-04  -0.4447306E+01   0.3000000E+00
   0.1990244E+02   0.1561905E+02   0.2287880E-04  -0.4640567E+01   0.2287880E-04  -0.4640567E+01   0.3000000E+00
   0.1990244E+02   0.1659524E+02   0.3095735E-04  -0.4509236E+01   0.3095735E-04  -0.4509236E+01   0.3000000E+00
   0.1990244E+02   0.1757143E+02   0.7090994E-04  -0.4149293E+01   0.7090994E-04  -0.4149293E+01   0.3000000E+00
   0.1990244E+02   0.1854762E+02   0.1140014E-03  -0.3943090E+01   0.1140014E-03  -0.3943090E+01   0.3000000E+00
   0.1990244E+02   0.1952381E+02   0.5518607E-04  -0.4258171E+01   0.5518607E-04  -0.4258171E+01   0.3000000E+00
   0.1990244E+02   0.2050000E+02   0.5518607E-04  -0.4258171E+01   0.5518607E-04  -0.4258171E+01   0.3000000E+00
   0.2239024E+02   0.0000000E+00   0.7700810E-04  -0.4113464E+01   0.7700810E-04  -0.4113464E+01   0.3000000E+00
   0.2239024E+02   0.9761905E+00   0.8423500E-04  -0.4074507E+01   0.8423500E-04  -0.4074507E+01   0.3000000E+00
   0.2239024E+02   0.1952381E+01   0.6491707E-04  -0.4187641E+01   0.6491707E-04  -0.4187641E+01   0.3000000E+00
   0.2239024E+02   0.2928571E+01   0.5565715E-04  -0.4254479E+01   0.5565715E-04  -0.4254479E+01   0.3000000E+00
   0.2239024E+02   0.3904762E+01   0.3748761E-04  -0.4426112E+01   0.3748761E-04  -0.4426112E+01   0.3000000E+00
   0.2239024E+02   0.4880952E+01   0.2513121E-04  -0.4599787E+01   0.2513121E-04  -0.4599787E+01   0.3000000E+00
   0.2239024E+02   0.5857143E+01   0.1026264E-04  -0.4988741E+01   0.1026264E-04  -0.4988741E+01   0.3000000E+00
   0.2239024E+02   0.6833333E+01   0.9566913E-05  -0.5019228E+01   0.9566913E-05  -0.5019228E+01   0.3000000E+00
   0.2239024E+02   0.7809524E+01   0.1622755E-04  -0.4789747E+01   0.1622755E-04  -0.4789747E+01   0.3000000E+00
   0.2239024E+02   0.8785714E+01   0.1754573E-04  -0.4755829E+01   0.1754573E-04  -0.4755829E+01   0.3000000E+00
   0.2239024E+02   0.9761905E+01   0.2218265E-04  -0.4653987E+01   0.2218265E-04  -0.4653987E+01   0.3000000E+00
   0.2239024E+02   0.1073810E+02   0.6084021E-08  -0.8215809E+01   0.6084021E-08  -0.8215809E+01   0.3000000E+00
   0.2239024E+02   0.1171429E+02   0.1724575E-07  -0.7763318E+01   0.1724575E-07  -0.7763318E+01   0.3000000E+00
   0.2239024E+02   0.1269048E+02   0.4236620E-08  -0.8372980E+01   0.4236620E-08  -0.8372980E+01   0.3000000E+00
   0.2239024E+02   0.1366667E+02   0.1217946E-08  -0.8914372E+01   0.1217946E-08  -0.8914372E+01   0.3000000E+00
   0.2239024E+02   0.1464286E+02   0.2524203E-04  -0.4597876E+01   0.2524203E-04  -0.4597876E+01   0.3000000E+00
   0.2239024E+02   0.1561905E+02   0.4303917E-04  -0.4366136E+01   0.4303917E-04  -0.4366136E+01   0.3000000E+00
   0.2239024E+02   0.1659524E+02   0.3535750E-04  -0.4451518E+01   0.3535750E-04  -0.4451518E+01   0.3000000E+00
   0.2239024E+02   0.1757143E+02   0.5557928E-04  -0.4255087E+01   0.5557928E-04  -0.4255087E+01   0.3000000E+00
   0.2239024E+02   0.1854762E+02   0.2991053E-04  -0.4524176E+01   0.2991053E-04  -0.4524176E+01   0.3000000E+00
   0.2239024E+02   0.1952381E+02   0.2590693E-04  -0.4586584E+01   0.2590693E-04  -0.4586584E+01   0.3000000E+00
   0.2239024E+02   0.2050000E+02   0.2590693E-04  -0.4586584E+01   0.2590693E-04  -0.4586584E+01   0.3000000E+00
   0.2487805E+02   0.0000000E+00   0.1105326E-03  -0.3956510E+01   0.1105326E-03  -0.3956510E+01   0.3000000E+00
   0.2487805E+02   0.9761905E+00   0.1206038E-03  -0.3918639E+01   0.1206038E-03  -0.3918639E+01   0.3000000E+00
   0.2487805E+02   0.1952381E+01   0.6979138E-04  -0.4156198E+01   0.6979138E-04  -0.4156198E+01   0.3000000E+00
   0.2487805E+02   0.2928571E+01   0.8121586E-04  -0.4090359E+01   0.8121586E-04  -0.4090359E+01   0.3000000E+00
   0.2487805E+02   0.3904762E+01   0.5131128E-04  -0.4289787E+01   0.5131128E-04  -0.4289787E+01   0.3000000E+00
   0.2487805E+02   0.4880952E+01   0.1155838E-04  -0.4937103E+01   0.1155838E-04  -0.4937103E+01   0.3000000E+00
   0.2487805E+02   0.5857143E+01   0.7777310E-05  -0.5109171E+01   0.7777310E-05  -0.5109171E+01   0.3000000E+00
   0.2487805E+02   0.6833333E+01   0.1408923E-04  -0.4851113E+01   0.1408923E-04  -0.4851113E+01   0.3000000E+00
   0.2487805E+02   0.7809524E+01   0.2830421E-04  -0.4548149E+01   0.2830421E-04  -0.4548149E+01   0.3000000E+00
   0.2487805E+02   0.8785714E+01   0.2367952E-04  -0.4625627E+01   0.2367952E-04  -0.4625627E+01   0.3000000E+00
   0.2487805E+02   0.9761905E+01   0.4942274E-04  -0.4306073E+01   0.4942274E-04  -0.4306073E+01   0.3000000E+00
   0.2487805E+02   0.1073810E+02   0.2020976E-07  -0.7694439E+01   0.2020976E-07  -0.7694439E+01   0.3000000E+00
   0.2487805E+02   0.1171429E+02   0.5694870E-08  -0.8244516E+01   0.5694870E-08  -0.8244516E+01   0.3000000E+00
   0.2487805E+02   0.1269048E+02   0.3040937E-08  -0.8516993E+01   0.3040937E-08  -0.8516993E+01   0.3000000E+00
   0.2487805E+02   0.1366667E+02   0.1362833E-08  -0.8865557E+01   0.1362833E-08  -0.8865557E+01   0.3000000E+00
   0.2487805E+02   0.1464286E+02   0.2512619E-04  -0.4599873E+01   0.2512619E-04  -0.4599873E+01   0.3000000E+00
   0.2487805E+02   0.1561905E+02   0.2432758E-04  -0.4613901E+01   0.2432758E-04  -0.4613901E+01   0.3000000E+00
   0.2487805E+02   0.1659524E+02   0.3635423E-04  -0.4439445E+01   0.3635423E-04  -0.4439445E+01   0.3000000E+00
   0.2487805E+02   0.1757143E+02   0.2807868E-04  -0.4551623E+01   0.2807868E-04  -0.4551623E+01   0.3000000E+00
   0.2487805E+02   0.1854762E+02   0.1915781E-04  -0.4717654E+01   0.1915781E-04  -0.4717654E+01   0.3000000E+00
   0.2487805E+02   0.1952381E+02   0.1457213E-04  -0.4836477E+01   0.1457213E-04  -0.4836477E+01   0.3000000E+00
   0.2487805E+02   0.2050000E+02   0.1457213E-04  -0.4836477E+01   0.1457213E-04  -0.4836477E+01   0.3000000E+00
   0.2736585E+02   0.0000000E+00   0.1293097E-03  -0.3888369E+01   0.1293097E-03  -0.3888369E+01   0.3000000E+00
   0.2736585E+02   0.9761905E+00   0.8928295E-04  -0.4049231E+01   0.8928295E-04  -0.4049231E+01   0.3000000E+00
   0.2736585E+02   0.1952381E+01   0.1426238E-03  -0.3845808E+01   0.1426238E-03  -0.3845808E+01   0.3000000E+00
   0.2736585E+02   0.2928571E+01   0.8133778E-04  -0.4089708E+01   0.8133778E-04  -0.4089708E+01   0.3000000E+00
   0.2736585E+02   0.3904762E+01   0.6193656E-04  -0.4208053E+01   0.6193656E-04  -0.4208053E+01   0.3000000E+00
   0.2736585E+02   0.4880952E+01   0.2096408E-04  -0.4678524E+01   0.2096408E-04  -0.4678524E+01   0.3000000E+00
   0.2736585E+02   0.5857143E+01   0.1656531E-04  -0.4780801E+01   0.1656531E-04  -0.4780801E+01   0.3000000E+00
   0.2736585E+02   0.6833333E+01   0.1545466E-04  -0.4810941E+01   0.1545466E-04  -0.4810941E+01   0.3000000E+00
   0.2736585E+02   0.7809524E+01   0.1676026E-04  -0.4775719E+01   0.1676026E-04  -0.4775719E+01   0.3000000E+00
   0.2736585E+02   0.8785714E+01   0.1715536E-04  -0.4765600E+01   0.1715536E-04  -0.4765600E+01   0.3000000E+00
   0.2736585E+02   0.9761905E+01   0.3853283E-04  -0.4414169E+01   0.3853283E-04  -0.4414169E+01   0.3000000E+00
   0.2736585E+02   0.1073810E+02   0.2698189E-07  -0.7568928E+01   0.2698189E-07  -0.7568928E+01   0.3000000E+00
   0.2736585E+02   0.1171429E+02   0.2261392E-07  -0.7645624E+01   0.2261392E-07  -0.7645624E+01   0.3000000E+00
   0.2736585E+02   0.1269048E+02   0.1242320E-07  -0.7905766E+01   0.1242320E-07  -0.7905766E+01   0.3000000E+00
   0.2736585E+02   0.1366667E+02   0.7359307E-08  -0.8133163E+01   0.7359307E-08  -0.8133163E+01   0.3000000E+00
   0.2736585E+02   0.1464286E+02   0.3514951E-04  -0.4454081E+01   0.3514951E-04  -0.4454081E+01   0.3000000E+00
   0.2736585E+02   0.1561905E+02   0.2381012E-04  -0.4623238E+01   0.2381012E-04  -0.4623238E+01   0.3000000E+00
   0.2736585E+02   0.1659524E+02   0.3457776E-04  -0.4461203E+01   0.3457776E-04  -0.4461203E+01   0.3000000E+00
   0.2736585E+02   0.1757143E+02   0.3892009E-04  -0.4409826E+01   0.3892009E-04  -0.4409826E+01   0.3000000E+00
   0.2736585E+02   0.1854762E+02   0.2090128E-04  -0.4679827E+01   0.2090128E-04  -0.4679827E+01   0.3000000E+00
   0.2736585E+02   0.1952381E+02   0.1079206E-04  -0.4966896E+01   0.1079206E-04  -0.4966896E+01   0.3000000E+00
   0.2736585E+02   0.2050000E+02   0.1079206E-04  -0.4966896E+01   0.1079206E-04  -0.4966896E+01   0.3000000E+00