title="2d vectors xz, t=    0.150E+03"
variables="x","z","vx","vz"
zone i=    21, j=    41, T="   0.150E+03"
  0.124390E+01  0.488058E+00  0.252186E-06  0.907880E-08
  0.124390E+01  0.146417E+01  0.175767E-06  0.114843E-07
  0.124390E+01  0.244029E+01  0.576938E-07 -0.194182E-08
  0.124390E+01  0.341641E+01  0.838694E-07 -0.934796E-08
  0.124390E+01  0.439252E+01  0.481874E-07 -0.577619E-08
  0.124390E+01  0.536864E+01  0.492164E-07 -0.186223E-07
  0.124390E+01  0.634476E+01  0.983043E-07 -0.181088E-07
  0.124390E+01  0.732087E+01  0.124273E-06 -0.118003E-07
  0.124390E+01  0.829699E+01  0.169658E-06 -0.153299E-07
  0.124390E+01  0.927310E+01  0.217531E-06 -0.184051E-07
  0.124390E+01  0.102492E+02  0.318207E-06 -0.944879E-08
  0.124390E+01  0.112253E+02  0.246324E-09  0.703375E-10
  0.124390E+01  0.122015E+02  0.155117E-09  0.118614E-09
  0.124390E+01  0.131776E+02  0.105621E-09  0.551309E-10
  0.124390E+01  0.141537E+02  0.175678E-10  0.968228E-11
  0.124390E+01  0.151298E+02  0.598658E-10 -0.527853E-11
  0.124390E+01  0.161059E+02  0.216795E-05 -0.143353E-06
  0.124390E+01  0.170820E+02  0.153835E-05 -0.235640E-07
  0.124390E+01  0.180582E+02  0.566715E-06 -0.474563E-08
  0.124390E+01  0.190343E+02  0.142599E-06 -0.557774E-08
  0.124390E+01  0.200104E+02  0.202284E-06  0.283219E-07
  0.373171E+01  0.487919E+00  0.227366E-06 -0.168055E-08
  0.373171E+01  0.146376E+01  0.193921E-06 -0.158996E-08
  0.373171E+01  0.243959E+01  0.136453E-06 -0.737718E-08
  0.373171E+01  0.341543E+01  0.701024E-07 -0.209998E-07
  0.373171E+01  0.439127E+01  0.106583E-06 -0.450798E-07
  0.373171E+01  0.536711E+01  0.680082E-07 -0.289860E-07
  0.373171E+01  0.634294E+01  0.944268E-07 -0.237074E-07
  0.373171E+01  0.731878E+01  0.128643E-06 -0.192548E-07
  0.373171E+01  0.829462E+01  0.206391E-06 -0.141596E-07
  0.373171E+01  0.927046E+01  0.220098E-06 -0.968563E-08
  0.373171E+01  0.102463E+02  0.259819E-06 -0.306936E-08
  0.373171E+01  0.112221E+02  0.406648E-09  0.357211E-09
  0.373171E+01  0.121980E+02  0.175012E-09  0.119732E-09
  0.373171E+01  0.131738E+02  0.252183E-09  0.155914E-09
  0.373171E+01  0.141496E+02  0.120425E-09  0.160385E-09
  0.373171E+01  0.151255E+02  0.142486E-05 -0.273010E-06
  0.373171E+01  0.161013E+02  0.117968E-05 -0.169118E-06
  0.373171E+01  0.170772E+02  0.143642E-05  0.170941E-07
  0.373171E+01  0.180530E+02  0.464200E-06  0.211864E-07
  0.373171E+01  0.190288E+02  0.281793E-06 -0.351110E-09
  0.373171E+01  0.200047E+02  0.185909E-06 -0.243600E-07
  0.621951E+01  0.487748E+00  0.286328E-06  0.117716E-07
  0.621951E+01  0.146324E+01  0.171930E-06  0.288993E-07
  0.621951E+01  0.243874E+01  0.203360E-06  0.716081E-08
  0.621951E+01  0.341423E+01  0.140771E-06 -0.217589E-07
  0.621951E+01  0.438973E+01  0.501140E-07 -0.145124E-07
  0.621951E+01  0.536522E+01  0.886099E-07 -0.303579E-07
  0.621951E+01  0.634072E+01  0.953140E-07 -0.301363E-07
  0.621951E+01  0.731621E+01  0.109628E-06 -0.278909E-07
  0.621951E+01  0.829171E+01  0.198271E-06 -0.247055E-07
  0.621951E+01  0.926721E+01  0.249360E-06 -0.187866E-07
  0.621951E+01  0.102427E+02  0.248924E-06 -0.110599E-07
  0.621951E+01  0.112182E+02  0.540977E-10  0.125442E-09
  0.621951E+01  0.121937E+02  0.574964E-09  0.359685E-09
  0.621951E+01  0.131692E+02  0.356676E-09  0.272424E-09
  0.621951E+01  0.141447E+02  0.169414E-09  0.143659E-09
  0.621951E+01  0.151202E+02  0.177374E-05  0.913949E-07
  0.621951E+01  0.160957E+02  0.758546E-06  0.340996E-07
  0.621951E+01  0.170712E+02  0.113088E-05  0.493734E-07
  0.621951E+01  0.180467E+02  0.634303E-06  0.917297E-07
  0.621951E+01  0.190222E+02  0.293753E-06  0.475225E-07
  0.621951E+01  0.199977E+02  0.304656E-06  0.175589E-07
  0.870732E+01  0.487627E+00  0.156709E-06  0.128522E-07
  0.870732E+01  0.146288E+01  0.158163E-06  0.344578E-07
  0.870732E+01  0.243814E+01  0.391825E-06  0.211806E-07
  0.870732E+01  0.341339E+01  0.138351E-06 -0.396310E-08
  0.870732E+01  0.438864E+01  0.206227E-06 -0.508504E-07
  0.870732E+01  0.536390E+01  0.121021E-06 -0.576326E-07
  0.870732E+01  0.633915E+01  0.144793E-06 -0.517484E-07
  0.870732E+01  0.731441E+01  0.115605E-06 -0.539547E-07
  0.870732E+01  0.828966E+01  0.157943E-06 -0.453123E-07
  0.870732E+01  0.926492E+01  0.271206E-06 -0.342405E-07
  0.870732E+01  0.102402E+02  0.232700E-06 -0.154072E-07
  0.870732E+01  0.112154E+02  0.141044E-09  0.477626E-09
  0.870732E+01  0.121907E+02  0.437080E-09  0.583222E-09
  0.870732E+01  0.131659E+02  0.414479E-09  0.271115E-09
  0.870732E+01  0.141412E+02  0.563138E-09  0.171261E-09
  0.870732E+01  0.151164E+02  0.785851E-06 -0.206453E-09
  0.870732E+01  0.160917E+02  0.995738E-06  0.355968E-07
  0.870732E+01  0.170669E+02  0.567191E-06  0.375134E-07
  0.870732E+01  0.180422E+02  0.485452E-06  0.785468E-07
  0.870732E+01  0.190175E+02  0.424275E-06  0.521673E-07
  0.870732E+01  0.199927E+02  0.407856E-06 -0.154646E-07
  0.111951E+02  0.487496E+00  0.185030E-06 -0.287899E-08
  0.111951E+02  0.146249E+01  0.212149E-06 -0.170407E-07
  0.111951E+02  0.243748E+01  0.495868E-06 -0.798699E-08
  0.111951E+02  0.341248E+01  0.492674E-06 -0.349906E-07
  0.111951E+02  0.438747E+01  0.171744E-06 -0.627722E-07
  0.111951E+02  0.536246E+01  0.164230E-06 -0.654409E-07
  0.111951E+02  0.633745E+01  0.263852E-06 -0.100521E-06
  0.111951E+02  0.731245E+01  0.107035E-06 -0.658319E-07
  0.111951E+02  0.828744E+01  0.108555E-06 -0.465323E-07
  0.111951E+02  0.926243E+01  0.188440E-06 -0.251564E-07
  0.111951E+02  0.102374E+02  0.163717E-06 -0.244638E-08
  0.111951E+02  0.112124E+02  0.779593E-09  0.239487E-08
  0.111951E+02  0.121874E+02  0.844153E-09  0.135407E-08
  0.111951E+02  0.131624E+02  0.138763E-08  0.146880E-08
  0.111951E+02  0.141374E+02  0.138360E-08  0.936304E-09
  0.111951E+02  0.151124E+02  0.808515E-06  0.285916E-08
  0.111951E+02  0.160874E+02  0.549799E-06  0.178511E-07
  0.111951E+02  0.170624E+02  0.683179E-06  0.372816E-07
  0.111951E+02  0.180374E+02  0.342400E-06  0.785531E-08
  0.111951E+02  0.190124E+02  0.661823E-06  0.201911E-07
  0.111951E+02  0.199874E+02  0.390889E-06  0.758396E-08
  0.136829E+02  0.487326E+00  0.275544E-06 -0.671203E-08
  0.136829E+02  0.146198E+01  0.434175E-06 -0.303363E-07
  0.136829E+02  0.243663E+01  0.469740E-06 -0.639108E-07
  0.136829E+02  0.341128E+01  0.782618E-06 -0.896439E-07
  0.136829E+02  0.438594E+01  0.192636E-06 -0.607427E-07
  0.136829E+02  0.536059E+01  0.200920E-06 -0.854601E-07
  0.136829E+02  0.633524E+01  0.140131E-06 -0.650634E-07
  0.136829E+02  0.730989E+01  0.105851E-06 -0.427953E-07
  0.136829E+02  0.828455E+01  0.115626E-06 -0.329710E-07
  0.136829E+02  0.925920E+01  0.125209E-06 -0.192464E-07
  0.136829E+02  0.102339E+02  0.159124E-06 -0.346997E-08
  0.136829E+02  0.112085E+02  0.167125E-09  0.112585E-08
  0.136829E+02  0.121832E+02  0.182832E-08  0.305344E-08
  0.136829E+02  0.131578E+02  0.148441E-08  0.303516E-08
  0.136829E+02  0.141325E+02  0.146855E-08  0.300641E-08
  0.136829E+02  0.151071E+02  0.630357E-06  0.420878E-07
  0.136829E+02  0.160818E+02  0.614969E-06  0.470318E-07
  0.136829E+02  0.170564E+02  0.465802E-06  0.345637E-07
  0.136829E+02  0.180311E+02  0.451682E-06  0.608664E-08
  0.136829E+02  0.190057E+02  0.238149E-06  0.170320E-08
  0.136829E+02  0.199804E+02  0.635488E-06  0.147423E-07
  0.161707E+02  0.487141E+00  0.281973E-06 -0.360533E-08
  0.161707E+02  0.146142E+01  0.589579E-06 -0.340764E-07
  0.161707E+02  0.243571E+01  0.715759E-06 -0.109057E-06
  0.161707E+02  0.340999E+01  0.383311E-06 -0.712020E-07
  0.161707E+02  0.438427E+01  0.275186E-06 -0.561298E-07
  0.161707E+02  0.535855E+01  0.127349E-06 -0.332804E-07
  0.161707E+02  0.633284E+01  0.887873E-07 -0.261839E-07
  0.161707E+02  0.730712E+01  0.593553E-07 -0.193791E-07
  0.161707E+02  0.828140E+01  0.922595E-07 -0.119175E-07
  0.161707E+02  0.925568E+01  0.995243E-07  0.334657E-08
  0.161707E+02  0.102300E+02  0.127508E-06  0.429503E-08
  0.161707E+02  0.112042E+02  0.247914E-09  0.112812E-08
  0.161707E+02  0.121785E+02  0.404278E-09  0.929972E-09
  0.161707E+02  0.131528E+02  0.491053E-09  0.104983E-08
  0.161707E+02  0.141271E+02  0.468109E-09  0.107531E-08
  0.161707E+02  0.151014E+02  0.479939E-06  0.120799E-07
  0.161707E+02  0.160757E+02  0.539692E-06  0.451144E-07
  0.161707E+02  0.170499E+02  0.435579E-06  0.456284E-07
  0.161707E+02  0.180242E+02  0.652501E-06  0.460934E-07
  0.161707E+02  0.189985E+02  0.321365E-06  0.174251E-07
  0.161707E+02  0.199728E+02  0.534004E-06 -0.584054E-08
  0.186585E+02  0.486871E+00  0.333347E-06 -0.306692E-07
  0.186585E+02  0.146061E+01  0.874661E-06 -0.112690E-06
  0.186585E+02  0.243436E+01  0.748517E-06 -0.856990E-07
  0.186585E+02  0.340810E+01  0.346817E-06 -0.420403E-07
  0.186585E+02  0.438184E+01  0.234901E-06 -0.266743E-07
  0.186585E+02  0.535558E+01  0.924374E-07 -0.932946E-08
  0.186585E+02  0.632933E+01  0.789034E-07 -0.551670E-08
  0.186585E+02  0.730307E+01  0.414828E-07 -0.214305E-08
  0.186585E+02  0.827681E+01  0.520571E-07  0.548516E-08
  0.186585E+02  0.925055E+01  0.546446E-07  0.873371E-08
  0.186585E+02  0.102243E+02  0.156965E-06  0.734833E-08
  0.186585E+02  0.111980E+02  0.591388E-10  0.646533E-10
  0.186585E+02  0.121718E+02  0.172633E-09  0.213173E-09
  0.186585E+02  0.131455E+02  0.110322E-09  0.182003E-09
  0.186585E+02  0.141193E+02  0.189918E-09  0.417005E-09
  0.186585E+02  0.150930E+02  0.480378E-06  0.146339E-08
  0.186585E+02  0.160668E+02  0.384026E-06  0.414925E-07
  0.186585E+02  0.170405E+02  0.583623E-06  0.114143E-06
  0.186585E+02  0.180142E+02  0.542556E-06  0.956203E-07
  0.186585E+02  0.189880E+02  0.448377E-06  0.401861E-07
  0.186585E+02  0.199617E+02  0.615534E-06 -0.248913E-07
  0.211463E+02  0.486701E+00  0.675527E-06 -0.293592E-07
  0.211463E+02  0.146010E+01  0.817543E-06 -0.900529E-08
  0.211463E+02  0.243350E+01  0.710441E-06  0.245026E-07
  0.211463E+02  0.340691E+01  0.387659E-06  0.349060E-07
  0.211463E+02  0.438031E+01  0.355456E-06  0.429557E-07
  0.211463E+02  0.535371E+01  0.136570E-06  0.279328E-07
  0.211463E+02  0.632711E+01  0.118141E-06  0.267101E-07
  0.211463E+02  0.730051E+01  0.467742E-07  0.205034E-07
  0.211463E+02  0.827391E+01  0.384186E-07  0.112672E-07
  0.211463E+02  0.924732E+01  0.807628E-07  0.964232E-08
  0.211463E+02  0.102207E+02  0.237414E-06 -0.103220E-08
  0.211463E+02  0.111941E+02  0.785710E-10  0.129255E-09
  0.211463E+02  0.121675E+02  0.194853E-10  0.387715E-10
  0.211463E+02  0.131409E+02  0.365053E-10  0.115161E-09
  0.211463E+02  0.141143E+02  0.261771E-10  0.106007E-09
  0.211463E+02  0.150877E+02  0.486328E-06  0.161960E-07
  0.211463E+02  0.160611E+02  0.313843E-06  0.148498E-08
  0.211463E+02  0.170345E+02  0.388371E-06 -0.130767E-07
  0.211463E+02  0.180079E+02  0.725645E-06 -0.777858E-08
  0.211463E+02  0.189813E+02  0.968038E-06 -0.726459E-07
  0.211463E+02  0.199547E+02  0.454401E-06 -0.298885E-07
  0.236341E+02  0.486552E+00  0.758054E-06  0.133432E-07
  0.236341E+02  0.145966E+01  0.808338E-06  0.123302E-07
  0.236341E+02  0.243276E+01  0.606198E-06  0.354104E-07
  0.236341E+02  0.340586E+01  0.517276E-06  0.500867E-07
  0.236341E+02  0.437897E+01  0.341210E-06  0.276854E-07
  0.236341E+02  0.535207E+01  0.215714E-06  0.465569E-07
  0.236341E+02  0.632518E+01  0.918879E-07  0.495923E-07
  0.236341E+02  0.729828E+01  0.890965E-07  0.512383E-07
  0.236341E+02  0.827139E+01  0.145193E-06  0.315357E-07
  0.236341E+02  0.924449E+01  0.165934E-06  0.846181E-08
  0.236341E+02  0.102176E+02  0.227525E-06  0.135102E-08
  0.236341E+02  0.111907E+02  0.551740E-10  0.762954E-10
  0.236341E+02  0.121638E+02  0.108704E-09  0.196236E-09
  0.236341E+02  0.131369E+02  0.337737E-10  0.832033E-10
  0.236341E+02  0.141100E+02  0.183164E-10  0.696999E-10
  0.236341E+02  0.150831E+02  0.468756E-06 -0.914010E-08
  0.236341E+02  0.160562E+02  0.765924E-06 -0.367845E-07
  0.236341E+02  0.170293E+02  0.620814E-06 -0.109926E-06
  0.236341E+02  0.180024E+02  0.979903E-06 -0.175101E-06
  0.236341E+02  0.189755E+02  0.523745E-06 -0.705628E-07
  0.236341E+02  0.199486E+02  0.437141E-06 -0.286870E-07
  0.261220E+02  0.486244E+00  0.815514E-06  0.417249E-08
  0.261220E+02  0.145873E+01  0.924636E-06  0.467071E-07
  0.261220E+02  0.243122E+01  0.566357E-06  0.552487E-07
  0.261220E+02  0.340371E+01  0.666335E-06  0.626292E-07
  0.261220E+02  0.437619E+01  0.430397E-06  0.434428E-07
  0.261220E+02  0.534868E+01  0.106741E-06  0.299036E-07
  0.261220E+02  0.632117E+01  0.711477E-07  0.375488E-07
  0.261220E+02  0.729366E+01  0.111609E-06  0.443606E-07
  0.261220E+02  0.826614E+01  0.204795E-06  0.414501E-07
  0.261220E+02  0.923863E+01  0.164738E-06  0.368286E-07
  0.261220E+02  0.102111E+02  0.331903E-06  0.206136E-07
  0.261220E+02  0.111836E+02  0.205555E-09  0.363707E-09
  0.261220E+02  0.121561E+02  0.112307E-09  0.132714E-09
  0.261220E+02  0.131286E+02  0.880993E-10  0.108509E-09
  0.261220E+02  0.141011E+02  0.404719E-10  0.833877E-10
  0.261220E+02  0.150736E+02  0.683666E-06 -0.403409E-07
  0.261220E+02  0.160460E+02  0.653269E-06 -0.609664E-07
  0.261220E+02  0.170185E+02  0.978697E-06 -0.688887E-07
  0.261220E+02  0.179910E+02  0.773172E-06 -0.732963E-07
  0.261220E+02  0.189635E+02  0.520315E-06 -0.799853E-07
  0.261220E+02  0.199360E+02  0.383616E-06 -0.445710E-07
  0.286098E+02  0.485783E+00  0.995540E-06 -0.362980E-07
  0.286098E+02  0.145735E+01  0.637651E-06  0.168167E-08
  0.286098E+02  0.242891E+01  0.923988E-06  0.870148E-07
  0.286098E+02  0.340048E+01  0.509912E-06  0.526222E-07
  0.286098E+02  0.437205E+01  0.384992E-06  0.809078E-07
  0.286098E+02  0.534361E+01  0.135828E-06  0.104295E-06
  0.286098E+02  0.631518E+01  0.117552E-06  0.630545E-07
  0.286098E+02  0.728674E+01  0.121784E-06  0.470414E-07
  0.286098E+02  0.825831E+01  0.146951E-06  0.350352E-07
  0.286098E+02  0.922987E+01  0.158828E-06  0.253087E-07
  0.286098E+02  0.102014E+02  0.362660E-06  0.105521E-07
  0.286098E+02  0.111730E+02  0.571481E-09  0.154228E-08
  0.286098E+02  0.121446E+02  0.762405E-09  0.921673E-09
  0.286098E+02  0.131161E+02  0.429056E-09  0.547797E-09
  0.286098E+02  0.140877E+02  0.211243E-09  0.292821E-09
  0.286098E+02  0.150593E+02  0.815215E-06 -0.225212E-07
  0.286098E+02  0.160308E+02  0.569144E-06 -0.611222E-07
  0.286098E+02  0.170024E+02  0.816236E-06 -0.838966E-07
  0.286098E+02  0.179740E+02  0.903802E-06 -0.580625E-07
  0.286098E+02  0.189455E+02  0.527845E-06 -0.221289E-07
  0.286098E+02  0.199171E+02  0.299932E-06 -0.196168E-07
  0.310976E+02  0.485332E+00  0.980751E-06  0.318168E-07
  0.310976E+02  0.145600E+01  0.416229E-06 -0.267212E-07
  0.310976E+02  0.242666E+01  0.697397E-06 -0.537118E-07
  0.310976E+02  0.339733E+01  0.367026E-06  0.759105E-07
  0.310976E+02  0.436799E+01  0.373622E-06  0.119667E-06
  0.310976E+02  0.533866E+01  0.911444E-07  0.580658E-07
  0.310976E+02  0.630932E+01  0.200148E-06  0.645870E-07
  0.310976E+02  0.727999E+01  0.119519E-06  0.355063E-07
  0.310976E+02  0.825065E+01  0.124565E-06  0.231097E-07
  0.310976E+02  0.922132E+01  0.215787E-06  0.212375E-07
  0.310976E+02  0.101920E+02  0.370459E-06  0.819174E-08
  0.310976E+02  0.111626E+02  0.105710E-08  0.548463E-08
  0.310976E+02  0.121333E+02  0.311191E-08  0.484342E-08
  0.310976E+02  0.131040E+02  0.254612E-08  0.259195E-08
  0.310976E+02  0.140746E+02  0.215451E-08  0.135018E-08
  0.310976E+02  0.150453E+02  0.644978E-06  0.582925E-08
  0.310976E+02  0.160160E+02  0.608526E-06 -0.201956E-07
  0.310976E+02  0.169866E+02  0.551951E-06 -0.135227E-07
  0.310976E+02  0.179573E+02  0.447909E-06  0.246068E-07
  0.310976E+02  0.189280E+02  0.499354E-06  0.347250E-07
  0.310976E+02  0.198986E+02  0.289085E-06  0.249108E-08
  0.335854E+02  0.484617E+00  0.536598E-06 -0.494296E-09
  0.335854E+02  0.145385E+01  0.937243E-06  0.172853E-08
  0.335854E+02  0.242308E+01  0.151375E-06  0.337083E-07
  0.335854E+02  0.339232E+01  0.194279E-06  0.491578E-07
  0.335854E+02  0.436155E+01  0.171465E-06  0.745050E-07
  0.335854E+02  0.533079E+01  0.260631E-06  0.108664E-06
  0.335854E+02  0.630002E+01  0.204486E-06  0.381262E-07
  0.335854E+02  0.726925E+01  0.195563E-06  0.273098E-07
  0.335854E+02  0.823849E+01  0.137805E-06  0.544689E-08
  0.335854E+02  0.920772E+01  0.203950E-06 -0.138474E-07
  0.335854E+02  0.101770E+02  0.300635E-06 -0.894254E-08
  0.335854E+02  0.111462E+02  0.980885E-09  0.869787E-08
  0.335854E+02  0.121154E+02  0.300860E-08  0.879143E-08
  0.335854E+02  0.130847E+02  0.752674E-08  0.881915E-08
  0.335854E+02  0.140539E+02  0.711192E-08  0.635083E-08
  0.335854E+02  0.150231E+02  0.525543E-06  0.326497E-08
  0.335854E+02  0.159924E+02  0.595409E-06  0.571196E-08
  0.335854E+02  0.169616E+02  0.381096E-06  0.241971E-07
  0.335854E+02  0.179308E+02  0.474258E-06  0.417140E-07
  0.335854E+02  0.189001E+02  0.505530E-06  0.242833E-07
  0.335854E+02  0.198693E+02  0.360794E-06  0.334944E-08
  0.360732E+02  0.484224E+00  0.808509E-06 -0.279494E-07
  0.360732E+02  0.145267E+01  0.541832E-06  0.167068E-07
  0.360732E+02  0.242112E+01  0.121609E-06  0.572441E-07
  0.360732E+02  0.338957E+01  0.169476E-06  0.787098E-07
  0.360732E+02  0.435801E+01  0.156615E-06  0.580935E-07
  0.360732E+02  0.532646E+01  0.327377E-06  0.417639E-07
  0.360732E+02  0.629491E+01  0.347607E-06  0.285042E-07
  0.360732E+02  0.726336E+01  0.160467E-06  0.100183E-07
  0.360732E+02  0.823180E+01  0.223250E-06 -0.837936E-08
  0.360732E+02  0.920025E+01  0.178237E-06 -0.183920E-07
  0.360732E+02  0.101687E+02  0.123537E-06 -0.146019E-08
  0.360732E+02  0.111371E+02  0.364504E-09  0.555794E-08
  0.360732E+02  0.121056E+02  0.107899E-08  0.769548E-08
  0.360732E+02  0.130740E+02  0.729632E-08  0.994143E-08
  0.360732E+02  0.140425E+02  0.846572E-08  0.980214E-08
  0.360732E+02  0.150109E+02  0.404868E-06  0.712312E-08
  0.360732E+02  0.159794E+02  0.463783E-06  0.242349E-07
  0.360732E+02  0.169478E+02  0.387812E-06  0.578673E-07
  0.360732E+02  0.179163E+02  0.427198E-06  0.204171E-07
  0.360732E+02  0.188847E+02  0.304451E-06 -0.100378E-09
  0.360732E+02  0.198532E+02  0.302817E-06 -0.906701E-08
  0.385610E+02  0.483737E+00  0.740024E-06  0.808809E-09
  0.385610E+02  0.145121E+01  0.380854E-06  0.898563E-08
  0.385610E+02  0.241868E+01  0.101261E-06  0.267248E-07
  0.385610E+02  0.338616E+01  0.103907E-06  0.390578E-07
  0.385610E+02  0.435363E+01  0.342299E-06  0.283664E-07
  0.385610E+02  0.532111E+01  0.325485E-06 -0.110596E-08
  0.385610E+02  0.628858E+01  0.321241E-06  0.303200E-07
  0.385610E+02  0.725605E+01  0.276060E-06  0.202341E-07
  0.385610E+02  0.822353E+01  0.332599E-06 -0.981620E-08
  0.385610E+02  0.919100E+01  0.160682E-06  0.684269E-08
  0.385610E+02  0.101585E+02  0.164908E-06  0.103323E-07
  0.385610E+02  0.111260E+02  0.537822E-09  0.113741E-07
  0.385610E+02  0.120934E+02  0.389179E-09  0.895967E-08
  0.385610E+02  0.130609E+02  0.216632E-08  0.110705E-07
  0.385610E+02  0.140284E+02  0.580977E-08  0.155214E-07
  0.385610E+02  0.149958E+02  0.378242E-06  0.219886E-07
  0.385610E+02  0.159633E+02  0.399309E-06  0.561138E-07
  0.385610E+02  0.169308E+02  0.186713E-06  0.455180E-07
  0.385610E+02  0.178983E+02  0.537370E-06  0.462735E-07
  0.385610E+02  0.188657E+02  0.290162E-06  0.136119E-08
  0.385610E+02  0.198332E+02  0.283996E-06 -0.112923E-07
  0.410488E+02  0.483390E+00  0.526922E-06  0.266514E-07
  0.410488E+02  0.145017E+01  0.300279E-06  0.282097E-07
  0.410488E+02  0.241695E+01  0.710488E-07  0.511720E-08
  0.410488E+02  0.338373E+01  0.196779E-06 -0.257147E-07
  0.410488E+02  0.435051E+01  0.249530E-06 -0.178573E-07
  0.410488E+02  0.531729E+01  0.299656E-06  0.312075E-08
  0.410488E+02  0.628407E+01  0.195434E-06  0.387884E-08
  0.410488E+02  0.725085E+01  0.472675E-06  0.126656E-07
  0.410488E+02  0.821763E+01  0.225174E-06  0.232632E-07
  0.410488E+02  0.918441E+01  0.191214E-06  0.252674E-07
  0.410488E+02  0.101512E+02  0.214788E-06  0.140613E-07
  0.410488E+02  0.111180E+02  0.381756E-09  0.640386E-08
  0.410488E+02  0.120847E+02  0.373147E-09  0.822984E-08
  0.410488E+02  0.130515E+02  0.399577E-09  0.704713E-08
  0.410488E+02  0.140183E+02  0.426063E-09  0.372009E-08
  0.410488E+02  0.149851E+02  0.309339E-06  0.321711E-07
  0.410488E+02  0.159519E+02  0.272837E-06  0.443640E-07
  0.410488E+02  0.169186E+02  0.293393E-06  0.253829E-07
  0.410488E+02  0.178854E+02  0.535636E-06  0.324237E-07
  0.410488E+02  0.188522E+02  0.582007E-06  0.643921E-07
  0.410488E+02  0.198190E+02  0.480197E-06  0.157247E-07
  0.435366E+02  0.483220E+00  0.298841E-06  0.229221E-07
  0.435366E+02  0.144966E+01  0.324181E-06  0.413265E-07
  0.435366E+02  0.241610E+01  0.154634E-06  0.699725E-08
  0.435366E+02  0.338254E+01  0.194678E-06 -0.144098E-07
  0.435366E+02  0.434898E+01  0.206849E-06 -0.114826E-07
  0.435366E+02  0.531542E+01  0.234106E-06  0.568255E-08
  0.435366E+02  0.628186E+01  0.263720E-06 -0.600778E-08
  0.435366E+02  0.724830E+01  0.239407E-06 -0.102521E-07
  0.435366E+02  0.821474E+01  0.236128E-06  0.780046E-08
  0.435366E+02  0.918118E+01  0.193421E-06  0.163691E-07
  0.435366E+02  0.101476E+02  0.248481E-06  0.141286E-07
  0.435366E+02  0.111141E+02  0.123864E-08  0.137303E-07
  0.435366E+02  0.120805E+02  0.176764E-08  0.969864E-08
  0.435366E+02  0.130469E+02  0.411013E-08  0.895012E-08
  0.435366E+02  0.140134E+02  0.179626E-08  0.703917E-08
  0.435366E+02  0.149798E+02  0.224471E-06  0.816622E-08
  0.435366E+02  0.159463E+02  0.495681E-06  0.335133E-07
  0.435366E+02  0.169127E+02  0.513969E-06  0.324128E-07
  0.435366E+02  0.178791E+02  0.511212E-06  0.473559E-07
  0.435366E+02  0.188456E+02  0.829954E-06  0.392556E-07
  0.435366E+02  0.198120E+02  0.752348E-06 -0.130000E-07
  0.460244E+02  0.483070E+00  0.187691E-06 -0.149241E-08
  0.460244E+02  0.144921E+01  0.309000E-06  0.401491E-09
  0.460244E+02  0.241535E+01  0.193604E-06  0.671698E-08
  0.460244E+02  0.338149E+01  0.198483E-06 -0.425295E-08
  0.460244E+02  0.434763E+01  0.160616E-06 -0.804541E-09
  0.460244E+02  0.531377E+01  0.149600E-06  0.918013E-08
  0.460244E+02  0.627991E+01  0.332330E-06 -0.235109E-08
  0.460244E+02  0.724605E+01  0.229684E-06 -0.214577E-07
  0.460244E+02  0.821219E+01  0.131049E-06 -0.146845E-07
  0.460244E+02  0.917833E+01  0.183802E-06 -0.701639E-08
  0.460244E+02  0.101445E+02  0.233582E-06  0.485235E-08
  0.460244E+02  0.111106E+02  0.109248E-08  0.127716E-07
  0.460244E+02  0.120768E+02  0.291330E-08  0.134223E-07
  0.460244E+02  0.130429E+02  0.269393E-08  0.107739E-07
  0.460244E+02  0.140090E+02  0.294553E-08  0.136881E-07
  0.460244E+02  0.149752E+02  0.451316E-06  0.214147E-07
  0.460244E+02  0.159413E+02  0.332265E-06  0.284304E-07
  0.460244E+02  0.169075E+02  0.782137E-06  0.370306E-07
  0.460244E+02  0.178736E+02  0.801607E-06  0.109330E-07
  0.460244E+02  0.188397E+02  0.117990E-05  0.126242E-07
  0.460244E+02  0.198059E+02  0.742152E-06 -0.588225E-08
  0.485122E+02  0.482950E+00  0.225805E-06 -0.183620E-07
  0.485122E+02  0.144885E+01  0.227622E-06 -0.265477E-07
  0.485122E+02  0.241475E+01  0.187052E-06 -0.155598E-07
  0.485122E+02  0.338065E+01  0.165964E-06 -0.335020E-08
  0.485122E+02  0.434655E+01  0.112033E-06  0.321335E-08
  0.485122E+02  0.531245E+01  0.196025E-06 -0.402682E-08
  0.485122E+02  0.627834E+01  0.373432E-06  0.107145E-07
  0.485122E+02  0.724424E+01  0.190424E-06  0.140444E-07
  0.485122E+02  0.821014E+01  0.199117E-06 -0.259192E-08
  0.485122E+02  0.917604E+01  0.143307E-06 -0.370121E-08
  0.485122E+02  0.101419E+02  0.231089E-06  0.102917E-07
  0.485122E+02  0.111078E+02 -0.387812E-10  0.120722E-07
  0.485122E+02  0.120737E+02 -0.691374E-09  0.144708E-07
  0.485122E+02  0.130396E+02  0.707809E-09  0.168987E-07
  0.485122E+02  0.140055E+02  0.165938E-08  0.122287E-07
  0.485122E+02  0.149714E+02  0.334562E-06  0.420646E-07
  0.485122E+02  0.159373E+02  0.719805E-06  0.610955E-07
  0.485122E+02  0.169032E+02  0.770511E-06  0.161570E-07
  0.485122E+02  0.178691E+02  0.557999E-06 -0.295069E-07
  0.485122E+02  0.188350E+02  0.819153E-06 -0.525778E-07
  0.485122E+02  0.198009E+02  0.804624E-06 -0.241717E-07
  0.510000E+02  0.482838E+00  0.235207E-06  0.971796E-08
  0.510000E+02  0.144851E+01  0.216656E-06 -0.665997E-08
  0.510000E+02  0.241419E+01  0.161943E-06 -0.194914E-07
  0.510000E+02  0.337986E+01  0.118804E-06 -0.945735E-08
  0.510000E+02  0.434554E+01  0.152512E-06 -0.947236E-08
  0.510000E+02  0.531122E+01  0.203221E-06 -0.118545E-07
  0.510000E+02  0.627689E+01  0.188321E-06  0.151419E-07
  0.510000E+02  0.724257E+01  0.300720E-06  0.508824E-07
  0.510000E+02  0.820824E+01  0.220887E-06  0.368889E-07
  0.510000E+02  0.917392E+01  0.135712E-06  0.117318E-07
  0.510000E+02  0.101396E+02  0.200858E-06  0.645355E-08
  0.510000E+02  0.111053E+02 -0.719892E-09  0.162041E-07
  0.510000E+02  0.120709E+02 -0.216428E-08  0.130482E-07
  0.510000E+02  0.130366E+02 -0.201763E-09  0.100260E-07
  0.510000E+02  0.140023E+02  0.216630E-08  0.109767E-07
  0.510000E+02  0.149680E+02  0.315105E-06 -0.103163E-07
  0.510000E+02  0.159336E+02  0.487250E-06 -0.169119E-07
  0.510000E+02  0.168993E+02  0.607263E-06  0.560352E-07
  0.510000E+02  0.178650E+02  0.108121E-05  0.615733E-07
  0.510000E+02  0.188307E+02  0.824749E-06 -0.303003E-07
  0.510000E+02  0.197963E+02  0.435971E-06 -0.166807E-07
  0.534878E+02  0.482672E+00  0.179422E-06  0.292238E-08
  0.534878E+02  0.144802E+01  0.401521E-06  0.235438E-07
  0.534878E+02  0.241336E+01  0.195251E-06  0.138194E-07
  0.534878E+02  0.337870E+01  0.104924E-06  0.201829E-08
  0.534878E+02  0.434405E+01  0.181779E-06 -0.407012E-08
  0.534878E+02  0.530939E+01  0.156628E-06 -0.246861E-08
  0.534878E+02  0.627473E+01  0.180353E-06  0.549560E-09
  0.534878E+02  0.724008E+01  0.221140E-06  0.135296E-07
  0.534878E+02  0.820542E+01  0.269763E-06  0.465490E-07
  0.534878E+02  0.917077E+01  0.286561E-06  0.493904E-07
  0.534878E+02  0.101361E+02  0.164626E-06  0.148183E-07
  0.534878E+02  0.111015E+02 -0.843020E-10  0.539647E-08
  0.534878E+02  0.120668E+02 -0.260429E-09  0.329024E-08
  0.534878E+02  0.130321E+02 -0.361659E-10  0.165981E-08
  0.534878E+02  0.139975E+02  0.381129E-09  0.414705E-08
  0.534878E+02  0.149628E+02  0.420138E-06 -0.322674E-07
  0.534878E+02  0.159282E+02  0.399857E-06 -0.428180E-07
  0.534878E+02  0.168935E+02  0.363607E-06 -0.245469E-08
  0.534878E+02  0.178589E+02  0.736910E-06  0.165768E-07
  0.534878E+02  0.188242E+02  0.984109E-06  0.288341E-07
  0.534878E+02  0.197895E+02  0.767324E-06 -0.274349E-07
  0.559756E+02  0.482604E+00  0.217787E-06  0.209642E-08
  0.559756E+02  0.144781E+01  0.183089E-06  0.190789E-07
  0.559756E+02  0.241302E+01  0.225472E-06  0.334211E-07
  0.559756E+02  0.337823E+01  0.149457E-06  0.949461E-08
  0.559756E+02  0.434343E+01  0.209071E-06 -0.105070E-07
  0.559756E+02  0.530864E+01  0.163670E-06 -0.121109E-07
  0.559756E+02  0.627385E+01  0.171183E-06 -0.432927E-08
  0.559756E+02  0.723906E+01  0.187723E-06  0.191707E-10
  0.559756E+02  0.820427E+01  0.215745E-06  0.516761E-08
  0.559756E+02  0.916947E+01  0.191448E-06  0.121178E-07
  0.559756E+02  0.101347E+02  0.210043E-06  0.102684E-07
  0.559756E+02  0.110999E+02  0.253864E-09  0.187314E-08
  0.559756E+02  0.120651E+02  0.516089E-09  0.230548E-08
  0.559756E+02  0.130303E+02 -0.457562E-10  0.328332E-08
  0.559756E+02  0.139955E+02 -0.144510E-09  0.206146E-08
  0.559756E+02  0.149607E+02  0.360421E-06 -0.978377E-08
  0.559756E+02  0.159259E+02  0.141075E-06 -0.238670E-07
  0.559756E+02  0.168911E+02  0.287684E-06 -0.380913E-07
  0.559756E+02  0.178563E+02  0.782618E-06 -0.181115E-07
  0.559756E+02  0.188216E+02  0.983369E-06 -0.336628E-07
  0.559756E+02  0.197868E+02  0.466360E-06 -0.319528E-07
  0.584634E+02  0.482489E+00  0.185956E-06  0.314282E-08
  0.584634E+02  0.144747E+01  0.209893E-06 -0.371964E-08
  0.584634E+02  0.241245E+01  0.278461E-06 -0.326663E-07
  0.584634E+02  0.337742E+01  0.224055E-06 -0.297475E-07
  0.584634E+02  0.434240E+01  0.164278E-06 -0.336016E-09
  0.584634E+02  0.530738E+01  0.131038E-06  0.124853E-07
  0.584634E+02  0.627236E+01  0.115622E-06  0.103815E-07
  0.584634E+02  0.723734E+01  0.191621E-06  0.457033E-08
  0.584634E+02  0.820231E+01  0.143128E-06  0.504278E-08
  0.584634E+02  0.916729E+01  0.201253E-06  0.110965E-07
  0.584634E+02  0.101323E+02  0.133641E-06  0.335853E-08
  0.584634E+02  0.110972E+02  0.233948E-10  0.119970E-08
  0.584634E+02  0.120622E+02  0.306223E-10  0.161941E-08
  0.584634E+02  0.130272E+02  0.237717E-09  0.130629E-08
  0.584634E+02  0.139922E+02  0.159945E-09  0.120953E-08
  0.584634E+02  0.149572E+02  0.525451E-06 -0.525108E-08
  0.584634E+02  0.159221E+02  0.306914E-06 -0.239365E-07
  0.584634E+02  0.168871E+02  0.292320E-06 -0.237817E-07
  0.584634E+02  0.178521E+02  0.456854E-06 -0.248784E-07
  0.584634E+02  0.188171E+02  0.109600E-05 -0.119413E-07
  0.584634E+02  0.197821E+02  0.463854E-06  0.490742E-08
  0.609512E+02  0.482322E+00  0.325629E-06 -0.359163E-07
  0.609512E+02  0.144697E+01  0.273002E-06 -0.571753E-07
  0.609512E+02  0.241161E+01  0.227150E-06 -0.660588E-08
  0.609512E+02  0.337625E+01  0.122930E-06  0.181826E-07
  0.609512E+02  0.434090E+01  0.120700E-06  0.129776E-07
  0.609512E+02  0.530554E+01  0.130717E-06  0.116069E-07
  0.609512E+02  0.627019E+01  0.152378E-06  0.137390E-07
  0.609512E+02  0.723483E+01  0.211350E-06  0.150288E-07
  0.609512E+02  0.819947E+01  0.117328E-06  0.106391E-07
  0.609512E+02  0.916412E+01  0.139801E-06  0.973052E-08
  0.609512E+02  0.101288E+02  0.188317E-06  0.829485E-08
  0.609512E+02  0.110934E+02  0.792336E-10  0.120908E-08
  0.609512E+02  0.120581E+02  0.954132E-10  0.710198E-09
  0.609512E+02  0.130227E+02  0.286894E-09  0.100102E-08
  0.609512E+02  0.139873E+02  0.305124E-09  0.896569E-09
  0.609512E+02  0.149520E+02  0.596008E-06  0.384411E-07
  0.609512E+02  0.159166E+02  0.347504E-06  0.490179E-07
  0.609512E+02  0.168813E+02  0.517569E-06  0.219398E-07
  0.609512E+02  0.178459E+02  0.958507E-06 -0.220362E-07
  0.609512E+02  0.188106E+02  0.944019E-06 -0.284882E-07