title="2d vectors xy, t=    0.150E+03"
variables="x","y","vx","vy"
zone i=    41, j=    41, T="   0.150E+03"
  0.124390E+01  0.124390E+01  0.252186E-06 -0.309938E-08
  0.124390E+01  0.373171E+01  0.343203E-06  0.236697E-08
  0.124390E+01  0.621951E+01  0.625947E-06  0.403746E-08
  0.124390E+01  0.870732E+01  0.958159E-06  0.576193E-07
  0.124390E+01  0.111951E+02  0.566102E-06  0.390970E-07
  0.124390E+01  0.136829E+02  0.292020E-06 -0.394974E-08
  0.124390E+01  0.161707E+02  0.323967E-06 -0.201586E-07
  0.124390E+01  0.186585E+02  0.241077E-06 -0.173199E-07
  0.124390E+01  0.211463E+02  0.510069E-06 -0.118113E-08
  0.124390E+01  0.236341E+02  0.706403E-06  0.129186E-07
  0.124390E+01  0.261220E+02  0.124577E-05  0.299090E-07
  0.124390E+01  0.286098E+02  0.893913E-06  0.527930E-07
  0.124390E+01  0.310976E+02  0.944611E-06  0.705160E-07
  0.124390E+01  0.335854E+02  0.570629E-06  0.281939E-07
  0.124390E+01  0.360732E+02  0.373232E-06 -0.268390E-08
  0.124390E+01  0.385610E+02  0.191632E-06 -0.105819E-08
  0.124390E+01  0.410488E+02  0.138140E-06 -0.124512E-08
  0.124390E+01  0.435366E+02  0.196947E-06  0.649245E-08
  0.124390E+01  0.460244E+02  0.267172E-06  0.365761E-07
  0.124390E+01  0.485122E+02  0.217957E-06  0.260518E-07
  0.124390E+01  0.510000E+02  0.914617E-07  0.107448E-08
  0.124390E+01  0.534878E+02  0.156739E-06 -0.667683E-08
  0.124390E+01  0.559756E+02  0.998168E-07 -0.643918E-08
  0.124390E+01  0.584634E+02  0.132826E-06 -0.700701E-08
  0.124390E+01  0.609512E+02  0.558457E-07  0.419797E-08
  0.124390E+01  0.634390E+02  0.110360E-06  0.113547E-07
  0.124390E+01  0.659268E+02  0.307244E-06  0.482569E-07
  0.124390E+01  0.684146E+02  0.406933E-06  0.130348E-09
  0.124390E+01  0.709024E+02  0.386748E-06 -0.429445E-07
  0.124390E+01  0.733902E+02  0.202985E-06 -0.738494E-08
  0.124390E+01  0.758780E+02  0.181314E-06 -0.119725E-07
  0.124390E+01  0.783659E+02  0.202762E-06 -0.738756E-08
  0.124390E+01  0.808537E+02  0.248555E-06  0.248526E-07
  0.124390E+01  0.833415E+02  0.293881E-06  0.478360E-08
  0.124390E+01  0.858293E+02  0.259035E-06 -0.248936E-07
  0.124390E+01  0.883171E+02  0.361340E-06 -0.492204E-07
  0.124390E+01  0.908049E+02  0.666848E-06 -0.347682E-07
  0.124390E+01  0.932927E+02  0.531307E-06  0.398295E-07
  0.124390E+01  0.957805E+02  0.105176E-05  0.331164E-07
  0.124390E+01  0.982683E+02  0.690675E-06  0.224521E-07
  0.124390E+01  0.100756E+03  0.384593E-06  0.228860E-06
  0.373171E+01  0.124390E+01  0.227366E-06 -0.841790E-08
  0.373171E+01  0.373171E+01  0.240540E-06 -0.159955E-07
  0.373171E+01  0.621951E+01  0.571436E-06  0.229465E-07
  0.373171E+01  0.870732E+01  0.722171E-06  0.429148E-07
  0.373171E+01  0.111951E+02  0.679379E-06  0.373541E-07
  0.373171E+01  0.136829E+02  0.585055E-06 -0.357299E-07
  0.373171E+01  0.161707E+02  0.544221E-06 -0.110838E-06
  0.373171E+01  0.186585E+02  0.398169E-06 -0.100454E-06
  0.373171E+01  0.211463E+02  0.532901E-06 -0.184689E-07
  0.373171E+01  0.236341E+02  0.600905E-06  0.801747E-07
  0.373171E+01  0.261220E+02  0.125258E-05  0.171395E-06
  0.373171E+01  0.286098E+02  0.900247E-06  0.172679E-06
  0.373171E+01  0.310976E+02  0.100823E-05  0.236186E-06
  0.373171E+01  0.335854E+02  0.752270E-06  0.114898E-06
  0.373171E+01  0.360732E+02  0.376675E-06  0.135068E-07
  0.373171E+01  0.385610E+02  0.116993E-06  0.150575E-07
  0.373171E+01  0.410488E+02  0.200043E-06  0.120888E-07
  0.373171E+01  0.435366E+02  0.951517E-07  0.148964E-07
  0.373171E+01  0.460244E+02  0.161256E-06  0.373677E-07
  0.373171E+01  0.485122E+02  0.159982E-06  0.340564E-07
  0.373171E+01  0.510000E+02  0.169018E-06  0.481779E-08
  0.373171E+01  0.534878E+02  0.127154E-06 -0.660200E-08
  0.373171E+01  0.559756E+02  0.146460E-06 -0.224044E-10
  0.373171E+01  0.584634E+02  0.628905E-07 -0.368537E-09
  0.373171E+01  0.609512E+02  0.610178E-07  0.408525E-08
  0.373171E+01  0.634390E+02  0.793699E-07  0.471456E-08
  0.373171E+01  0.659268E+02  0.175839E-06  0.237646E-07
  0.373171E+01  0.684146E+02  0.735202E-06  0.175804E-07
  0.373171E+01  0.709024E+02  0.161630E-06 -0.213301E-07
  0.373171E+01  0.733902E+02  0.129878E-06 -0.176111E-07
  0.373171E+01  0.758780E+02  0.134393E-06 -0.788037E-08
  0.373171E+01  0.783659E+02  0.175660E-06 -0.551819E-08
  0.373171E+01  0.808537E+02  0.154933E-06  0.124611E-08
  0.373171E+01  0.833415E+02  0.591839E-06 -0.515857E-07
  0.373171E+01  0.858293E+02  0.542638E-06 -0.184660E-06
  0.373171E+01  0.883171E+02  0.421646E-06 -0.741260E-07
  0.373171E+01  0.908049E+02  0.422171E-06 -0.134350E-07
  0.373171E+01  0.932927E+02  0.378841E-06  0.699109E-08
  0.373171E+01  0.957805E+02  0.898967E-06  0.186759E-07
  0.373171E+01  0.982683E+02  0.559023E-06  0.146751E-07
  0.373171E+01  0.100756E+03  0.377845E-06 -0.240093E-07
  0.621951E+01  0.124390E+01  0.286328E-06 -0.787009E-08
  0.621951E+01  0.373171E+01  0.297440E-06 -0.354869E-07
  0.621951E+01  0.621951E+01  0.268278E-06 -0.345164E-07
  0.621951E+01  0.870732E+01  0.494391E-06 -0.535258E-07
  0.621951E+01  0.111951E+02  0.303406E-06 -0.485350E-07
  0.621951E+01  0.136829E+02  0.501980E-06 -0.595835E-07
  0.621951E+01  0.161707E+02  0.728298E-06 -0.757683E-07
  0.621951E+01  0.186585E+02  0.482768E-06 -0.728581E-07
  0.621951E+01  0.211463E+02  0.500951E-06  0.161297E-07
  0.621951E+01  0.236341E+02  0.451465E-06  0.714544E-07
  0.621951E+01  0.261220E+02  0.134823E-05  0.189549E-06
  0.621951E+01  0.286098E+02  0.122033E-05  0.288704E-06
  0.621951E+01  0.310976E+02  0.975941E-06  0.284223E-06
  0.621951E+01  0.335854E+02  0.916898E-06  0.187680E-06
  0.621951E+01  0.360732E+02  0.248378E-06  0.690310E-07
  0.621951E+01  0.385610E+02  0.174862E-06  0.743642E-07
  0.621951E+01  0.410488E+02  0.251753E-06  0.752005E-07
  0.621951E+01  0.435366E+02  0.109446E-06  0.431767E-07
  0.621951E+01  0.460244E+02  0.128748E-06  0.472506E-07
  0.621951E+01  0.485122E+02  0.208801E-06  0.357302E-07
  0.621951E+01  0.510000E+02  0.176130E-06  0.217729E-07
  0.621951E+01  0.534878E+02  0.903323E-07  0.939650E-08
  0.621951E+01  0.559756E+02  0.151860E-06  0.922364E-08
  0.621951E+01  0.584634E+02  0.904376E-07  0.597987E-08
  0.621951E+01  0.609512E+02  0.480145E-07 -0.428529E-09
  0.621951E+01  0.634390E+02  0.129575E-06 -0.172083E-07
  0.621951E+01  0.659268E+02  0.206908E-06 -0.468086E-07
  0.621951E+01  0.684146E+02  0.446929E-06 -0.153864E-07
  0.621951E+01  0.709024E+02  0.219418E-06  0.196985E-07
  0.621951E+01  0.733902E+02  0.642008E-07 -0.446553E-08
  0.621951E+01  0.758780E+02  0.785475E-07  0.847703E-09
  0.621951E+01  0.783659E+02  0.141335E-06 -0.150085E-08
  0.621951E+01  0.808537E+02  0.191546E-06 -0.426301E-07
  0.621951E+01  0.833415E+02  0.696645E-06 -0.735650E-07
  0.621951E+01  0.858293E+02  0.389320E-06 -0.493630E-07
  0.621951E+01  0.883171E+02  0.331478E-06 -0.359788E-07
  0.621951E+01  0.908049E+02  0.297539E-06 -0.254518E-07
  0.621951E+01  0.932927E+02  0.268714E-06 -0.709015E-07
  0.621951E+01  0.957805E+02  0.382982E-06 -0.370506E-07
  0.621951E+01  0.982683E+02  0.807356E-06 -0.445765E-08
  0.621951E+01  0.100756E+03  0.603068E-06 -0.198308E-08
  0.870732E+01  0.124390E+01  0.156709E-06 -0.585660E-08
  0.870732E+01  0.373171E+01  0.268946E-06 -0.500268E-07
  0.870732E+01  0.621951E+01  0.457577E-06 -0.172746E-06
  0.870732E+01  0.870732E+01  0.317498E-06 -0.862301E-07
  0.870732E+01  0.111951E+02  0.343143E-06 -0.517706E-07
  0.870732E+01  0.136829E+02  0.402548E-06 -0.503020E-07
  0.870732E+01  0.161707E+02  0.781584E-06  0.280433E-07
  0.870732E+01  0.186585E+02  0.491499E-06  0.471036E-07
  0.870732E+01  0.211463E+02  0.196850E-06  0.258428E-07
  0.870732E+01  0.236341E+02  0.560217E-06  0.142016E-06
  0.870732E+01  0.261220E+02  0.134664E-05  0.249745E-06
  0.870732E+01  0.286098E+02  0.999208E-06  0.216890E-06
  0.870732E+01  0.310976E+02  0.100832E-05  0.235496E-06
  0.870732E+01  0.335854E+02  0.886745E-06  0.296533E-06
  0.870732E+01  0.360732E+02  0.334913E-06  0.164897E-06
  0.870732E+01  0.385610E+02  0.201181E-06  0.106006E-06
  0.870732E+01  0.410488E+02  0.267503E-06  0.142915E-06
  0.870732E+01  0.435366E+02  0.196986E-06  0.140872E-06
  0.870732E+01  0.460244E+02  0.112314E-06  0.784681E-07
  0.870732E+01  0.485122E+02  0.295455E-06  0.733443E-07
  0.870732E+01  0.510000E+02  0.890647E-07  0.511104E-07
  0.870732E+01  0.534878E+02  0.136519E-06  0.448717E-07
  0.870732E+01  0.559756E+02  0.114399E-06  0.689422E-08
  0.870732E+01  0.584634E+02  0.105750E-06 -0.180216E-09
  0.870732E+01  0.609512E+02  0.104302E-06 -0.116991E-07
  0.870732E+01  0.634390E+02  0.120530E-06 -0.231644E-07
  0.870732E+01  0.659268E+02  0.256969E-06 -0.430228E-07
  0.870732E+01  0.684146E+02  0.273296E-06 -0.282788E-07
  0.870732E+01  0.709024E+02  0.201827E-06 -0.392298E-08
  0.870732E+01  0.733902E+02  0.102232E-06  0.102136E-07
  0.870732E+01  0.758780E+02  0.146157E-06 -0.254239E-08
  0.870732E+01  0.783659E+02  0.990174E-07 -0.128664E-07
  0.870732E+01  0.808537E+02  0.233329E-06 -0.437752E-07
  0.870732E+01  0.833415E+02  0.428645E-06 -0.195630E-07
  0.870732E+01  0.858293E+02  0.342338E-06 -0.273913E-07
  0.870732E+01  0.883171E+02  0.271800E-06 -0.570994E-07
  0.870732E+01  0.908049E+02  0.457065E-06 -0.792826E-07
  0.870732E+01  0.932927E+02  0.188813E-06 -0.634040E-07
  0.870732E+01  0.957805E+02  0.427103E-06 -0.100902E-06
  0.870732E+01  0.982683E+02  0.376783E-06 -0.365184E-07
  0.870732E+01  0.100756E+03  0.598927E-06  0.337004E-07
  0.111951E+02  0.124390E+01  0.185030E-06 -0.335481E-07
  0.111951E+02  0.373171E+01  0.186903E-06 -0.623039E-07
  0.111951E+02  0.621951E+01  0.468975E-06 -0.134437E-06
  0.111951E+02  0.870732E+01  0.213584E-06 -0.783203E-07
  0.111951E+02  0.111951E+02  0.261432E-06 -0.532819E-07
  0.111951E+02  0.136829E+02  0.183983E-06 -0.177308E-07
  0.111951E+02  0.161707E+02  0.493247E-06 -0.316349E-08
  0.111951E+02  0.186585E+02  0.334102E-06  0.552522E-07
  0.111951E+02  0.211463E+02  0.298747E-06  0.819960E-07
  0.111951E+02  0.236341E+02  0.326951E-06  0.534220E-07
  0.111951E+02  0.261220E+02  0.155079E-05  0.218410E-06
  0.111951E+02  0.286098E+02  0.127987E-05  0.223822E-06
  0.111951E+02  0.310976E+02  0.684426E-06  0.181049E-06
  0.111951E+02  0.335854E+02  0.306129E-06  0.151487E-06
  0.111951E+02  0.360732E+02  0.559444E-06  0.368988E-06
  0.111951E+02  0.385610E+02  0.270196E-06  0.256560E-06
  0.111951E+02  0.410488E+02  0.305851E-06  0.254241E-06
  0.111951E+02  0.435366E+02  0.202675E-06  0.178280E-06
  0.111951E+02  0.460244E+02  0.194083E-06  0.128781E-06
  0.111951E+02  0.485122E+02  0.252329E-06  0.820297E-07
  0.111951E+02  0.510000E+02  0.943382E-07  0.638825E-07
  0.111951E+02  0.534878E+02  0.115375E-06  0.371726E-07
  0.111951E+02  0.559756E+02  0.164175E-06  0.265584E-07
  0.111951E+02  0.584634E+02  0.117836E-06 -0.633779E-08
  0.111951E+02  0.609512E+02  0.101114E-06 -0.173323E-07
  0.111951E+02  0.634390E+02  0.113451E-06 -0.212367E-07
  0.111951E+02  0.659268E+02  0.197962E-06 -0.311739E-07
  0.111951E+02  0.684146E+02  0.243536E-06 -0.347513E-07
  0.111951E+02  0.709024E+02  0.214000E-06  0.384363E-08
  0.111951E+02  0.733902E+02  0.130707E-06  0.180105E-07
  0.111951E+02  0.758780E+02  0.250514E-06 -0.770377E-08
  0.111951E+02  0.783659E+02  0.302706E-06 -0.592436E-07
  0.111951E+02  0.808537E+02  0.106309E-06 -0.230714E-07
  0.111951E+02  0.833415E+02  0.442551E-06 -0.106402E-08
  0.111951E+02  0.858293E+02  0.407943E-06  0.835580E-08
  0.111951E+02  0.883171E+02  0.376200E-06 -0.351401E-07
  0.111951E+02  0.908049E+02  0.404908E-06 -0.279846E-07
  0.111951E+02  0.932927E+02  0.282053E-06 -0.649957E-07
  0.111951E+02  0.957805E+02  0.479161E-06 -0.138761E-06
  0.111951E+02  0.982683E+02  0.341069E-06 -0.727467E-07
  0.111951E+02  0.100756E+03  0.474863E-06 -0.256583E-07
  0.136829E+02  0.124390E+01  0.275544E-06 -0.189381E-07
  0.136829E+02  0.373171E+01  0.215675E-06 -0.226013E-07
  0.136829E+02  0.621951E+01  0.415194E-06 -0.544358E-07
  0.136829E+02  0.870732E+01  0.321032E-06 -0.734957E-07
  0.136829E+02  0.111951E+02  0.233715E-06 -0.630516E-07
  0.136829E+02  0.136829E+02  0.273917E-06 -0.454561E-07
  0.136829E+02  0.161707E+02  0.272001E-06 -0.794310E-09
  0.136829E+02  0.186585E+02  0.251545E-06  0.296680E-07
  0.136829E+02  0.211463E+02  0.208242E-06  0.749467E-07
  0.136829E+02  0.236341E+02  0.740295E-06  0.108953E-06
  0.136829E+02  0.261220E+02  0.111989E-05  0.156634E-06
  0.136829E+02  0.286098E+02  0.109827E-05  0.145153E-06
  0.136829E+02  0.310976E+02  0.491088E-06  0.801675E-07
  0.136829E+02  0.335854E+02  0.409044E-06  0.886876E-07
  0.136829E+02  0.360732E+02  0.276806E-06  0.915566E-07
  0.136829E+02  0.385610E+02  0.238684E-06  0.158230E-06
  0.136829E+02  0.410488E+02  0.231903E-06  0.208602E-06
  0.136829E+02  0.435366E+02  0.295834E-06  0.303364E-06
  0.136829E+02  0.460244E+02  0.176789E-06  0.172194E-06
  0.136829E+02  0.485122E+02  0.230819E-06  0.103374E-06
  0.136829E+02  0.510000E+02  0.146176E-06  0.861552E-07
  0.136829E+02  0.534878E+02  0.165792E-06  0.520965E-07
  0.136829E+02  0.559756E+02  0.123005E-06  0.218966E-07
  0.136829E+02  0.584634E+02  0.132184E-06 -0.299599E-08
  0.136829E+02  0.609512E+02  0.726783E-07 -0.173159E-07
  0.136829E+02  0.634390E+02  0.954971E-07 -0.431007E-07
  0.136829E+02  0.659268E+02  0.248020E-06 -0.611608E-07
  0.136829E+02  0.684146E+02  0.199537E-06 -0.145531E-07
  0.136829E+02  0.709024E+02  0.341722E-06  0.646280E-07
  0.136829E+02  0.733902E+02  0.433378E-06  0.254412E-07
  0.136829E+02  0.758780E+02  0.505711E-06 -0.513997E-07
  0.136829E+02  0.783659E+02  0.412629E-06 -0.185976E-07
  0.136829E+02  0.808537E+02  0.209764E-06 -0.254207E-07
  0.136829E+02  0.833415E+02  0.179269E-06  0.163784E-08
  0.136829E+02  0.858293E+02  0.299477E-06  0.256709E-07
  0.136829E+02  0.883171E+02  0.253660E-06  0.130705E-07
  0.136829E+02  0.908049E+02  0.377390E-06  0.161181E-07
  0.136829E+02  0.932927E+02  0.499311E-06 -0.836523E-07
  0.136829E+02  0.957805E+02  0.526792E-06 -0.180092E-06
  0.136829E+02  0.982683E+02  0.418066E-06 -0.982477E-07
  0.136829E+02  0.100756E+03  0.300848E-06 -0.373724E-07
  0.161707E+02  0.124390E+01  0.281973E-06  0.107190E-08
  0.161707E+02  0.373171E+01  0.286472E-06 -0.206793E-07
  0.161707E+02  0.621951E+01  0.572550E-06 -0.962447E-07
  0.161707E+02  0.870732E+01  0.356875E-06 -0.744654E-07
  0.161707E+02  0.111951E+02  0.271023E-06 -0.575919E-07
  0.161707E+02  0.136829E+02  0.113012E-06 -0.153204E-07
  0.161707E+02  0.161707E+02  0.286524E-06  0.251063E-08
  0.161707E+02  0.186585E+02  0.197627E-06  0.194762E-07
  0.161707E+02  0.211463E+02  0.269277E-06  0.333166E-07
  0.161707E+02  0.236341E+02  0.798938E-06  0.127982E-06
  0.161707E+02  0.261220E+02  0.113918E-05  0.173556E-06
  0.161707E+02  0.286098E+02  0.130902E-05  0.237084E-06
  0.161707E+02  0.310976E+02  0.529951E-06  0.124928E-06
  0.161707E+02  0.335854E+02  0.325781E-06  0.249795E-07
  0.161707E+02  0.360732E+02  0.254221E-06  0.517464E-07
  0.161707E+02  0.385610E+02  0.187778E-06  0.950499E-07
  0.161707E+02  0.410488E+02  0.209909E-06  0.135994E-06
  0.161707E+02  0.435366E+02  0.221707E-06  0.123667E-06
  0.161707E+02  0.460244E+02  0.141869E-06  0.109692E-06
  0.161707E+02  0.485122E+02  0.351856E-06  0.211586E-06
  0.161707E+02  0.510000E+02  0.229832E-06  0.136566E-06
  0.161707E+02  0.534878E+02  0.203671E-06  0.451581E-07
  0.161707E+02  0.559756E+02  0.249032E-06  0.266140E-07
  0.161707E+02  0.584634E+02  0.191189E-06 -0.114429E-07
  0.161707E+02  0.609512E+02  0.192496E-06 -0.430689E-07
  0.161707E+02  0.634390E+02  0.109517E-06 -0.399666E-07
  0.161707E+02  0.659268E+02  0.198829E-06 -0.280028E-07
  0.161707E+02  0.684146E+02  0.189860E-06  0.841935E-08
  0.161707E+02  0.709024E+02  0.237281E-06  0.149641E-07
  0.161707E+02  0.733902E+02  0.856601E-06 -0.322369E-07
  0.161707E+02  0.758780E+02  0.615587E-06 -0.677070E-07
  0.161707E+02  0.783659E+02  0.355791E-06 -0.108203E-07
  0.161707E+02  0.808537E+02  0.370185E-06  0.373061E-07
  0.161707E+02  0.833415E+02  0.213855E-06  0.114596E-07
  0.161707E+02  0.858293E+02  0.383324E-06  0.334271E-07
  0.161707E+02  0.883171E+02  0.206129E-06  0.338705E-07
  0.161707E+02  0.908049E+02  0.453881E-06  0.221858E-07
  0.161707E+02  0.932927E+02  0.123512E-05 -0.934383E-07
  0.161707E+02  0.957805E+02  0.611856E-06 -0.230131E-06
  0.161707E+02  0.982683E+02  0.752315E-06 -0.367443E-06
  0.161707E+02  0.100756E+03  0.417377E-06 -0.125256E-06
  0.186585E+02  0.124390E+01  0.333347E-06 -0.915417E-08
  0.186585E+02  0.373171E+01  0.717784E-06 -0.914148E-07
  0.186585E+02  0.621951E+01  0.722940E-06 -0.138303E-06
  0.186585E+02  0.870732E+01  0.233578E-06 -0.543803E-07
  0.186585E+02  0.111951E+02  0.381106E-06 -0.127943E-07
  0.186585E+02  0.136829E+02  0.219114E-06 -0.635645E-08
  0.186585E+02  0.161707E+02  0.356476E-06 -0.265813E-08
  0.186585E+02  0.186585E+02  0.200733E-06  0.511818E-07
  0.186585E+02  0.211463E+02  0.289353E-06  0.123106E-07
  0.186585E+02  0.236341E+02  0.425656E-06 -0.628246E-08
  0.186585E+02  0.261220E+02  0.134841E-05  0.161990E-06
  0.186585E+02  0.286098E+02  0.761339E-06  0.137660E-06
  0.186585E+02  0.310976E+02  0.980524E-06  0.135976E-06
  0.186585E+02  0.335854E+02  0.438739E-06  0.145781E-07
  0.186585E+02  0.360732E+02  0.164562E-06  0.249541E-07
  0.186585E+02  0.385610E+02  0.191739E-06  0.875266E-07
  0.186585E+02  0.410488E+02  0.121075E-06  0.859949E-07
  0.186585E+02  0.435366E+02  0.248997E-06  0.929425E-07
  0.186585E+02  0.460244E+02  0.227923E-06  0.882548E-07
  0.186585E+02  0.485122E+02  0.219346E-06  0.859958E-07
  0.186585E+02  0.510000E+02  0.250698E-06  0.186977E-06
  0.186585E+02  0.534878E+02  0.514362E-06  0.228467E-06
  0.186585E+02  0.559756E+02  0.264370E-06  0.237919E-07
  0.186585E+02  0.584634E+02  0.568026E-06 -0.102947E-06
  0.186585E+02  0.609512E+02  0.320070E-06 -0.145165E-06
  0.186585E+02  0.634390E+02  0.253496E-06 -0.833104E-07
  0.186585E+02  0.659268E+02  0.194999E-06 -0.346805E-07
  0.186585E+02  0.684146E+02  0.148822E-06  0.114270E-07
  0.186585E+02  0.709024E+02  0.607638E-06 -0.625908E-07
  0.186585E+02  0.733902E+02  0.781379E-06 -0.151198E-06
  0.186585E+02  0.758780E+02  0.792369E-06  0.192206E-07
  0.186585E+02  0.783659E+02  0.295077E-06  0.292347E-07
  0.186585E+02  0.808537E+02  0.563484E-06  0.789215E-07
  0.186585E+02  0.833415E+02  0.430180E-06  0.449260E-07
  0.186585E+02  0.858293E+02  0.414094E-06  0.480517E-07
  0.186585E+02  0.883171E+02  0.370882E-06  0.584485E-07
  0.186585E+02  0.908049E+02  0.655196E-06 -0.510455E-07
  0.186585E+02  0.932927E+02  0.157766E-05 -0.241844E-06
  0.186585E+02  0.957805E+02  0.104616E-05 -0.407704E-06
  0.186585E+02  0.982683E+02  0.503199E-06 -0.219223E-06
  0.186585E+02  0.100756E+03  0.179762E-06 -0.358576E-07
  0.211463E+02  0.124390E+01  0.675527E-06 -0.538705E-07
  0.211463E+02  0.373171E+01  0.877640E-06 -0.977210E-07
  0.211463E+02  0.621951E+01  0.684628E-06 -0.321223E-07
  0.211463E+02  0.870732E+01  0.429417E-06  0.346031E-08
  0.211463E+02  0.111951E+02  0.202041E-06  0.318861E-07
  0.211463E+02  0.136829E+02  0.313816E-06  0.254142E-07
  0.211463E+02  0.161707E+02  0.187870E-06 -0.966611E-09
  0.211463E+02  0.186585E+02  0.166772E-06  0.101470E-07
  0.211463E+02  0.211463E+02  0.371066E-06  0.159959E-07
  0.211463E+02  0.236341E+02  0.590208E-06 -0.303155E-07
  0.211463E+02  0.261220E+02  0.676142E-06  0.402078E-07
  0.211463E+02  0.286098E+02  0.128315E-05  0.211814E-06
  0.211463E+02  0.310976E+02  0.104653E-05  0.180703E-06
  0.211463E+02  0.335854E+02  0.301403E-06  0.502943E-07
  0.211463E+02  0.360732E+02  0.128617E-06  0.304554E-07
  0.211463E+02  0.385610E+02  0.113844E-06  0.305040E-07
  0.211463E+02  0.410488E+02  0.103036E-06  0.402179E-07
  0.211463E+02  0.435366E+02  0.290409E-06  0.781704E-07
  0.211463E+02  0.460244E+02  0.187115E-06  0.655299E-07
  0.211463E+02  0.485122E+02  0.263058E-06  0.688804E-07
  0.211463E+02  0.510000E+02  0.228214E-06  0.643117E-07
  0.211463E+02  0.534878E+02  0.480633E-06  0.840732E-07
  0.211463E+02  0.559756E+02  0.701287E-06 -0.783698E-07
  0.211463E+02  0.584634E+02  0.953195E-06 -0.281032E-06
  0.211463E+02  0.609512E+02  0.545282E-06 -0.165030E-06
  0.211463E+02  0.634390E+02  0.338210E-06 -0.731394E-07
  0.211463E+02  0.659268E+02  0.226933E-06 -0.593386E-08
  0.211463E+02  0.684146E+02  0.216661E-06 -0.135502E-07
  0.211463E+02  0.709024E+02  0.749467E-06 -0.774527E-07
  0.211463E+02  0.733902E+02  0.793440E-06 -0.535566E-07
  0.211463E+02  0.758780E+02  0.291119E-06  0.539211E-07
  0.211463E+02  0.783659E+02  0.706071E-06  0.210720E-06
  0.211463E+02  0.808537E+02  0.429079E-06  0.897786E-07
  0.211463E+02  0.833415E+02  0.769630E-06  0.368134E-07
  0.211463E+02  0.858293E+02  0.294927E-06 -0.676641E-08
  0.211463E+02  0.883171E+02  0.790152E-06 -0.738178E-07
  0.211463E+02  0.908049E+02  0.685371E-06 -0.174907E-06
  0.211463E+02  0.932927E+02  0.994768E-06 -0.112882E-06
  0.211463E+02  0.957805E+02  0.891819E-06 -0.263207E-07
  0.211463E+02  0.982683E+02  0.388091E-06 -0.682338E-07
  0.211463E+02  0.100756E+03  0.116405E-06 -0.136914E-07
  0.236341E+02  0.124390E+01  0.758054E-06 -0.336211E-07
  0.236341E+02  0.373171E+01  0.666813E-06 -0.767693E-07
  0.236341E+02  0.621951E+01  0.712222E-06 -0.204104E-07
  0.236341E+02  0.870732E+01  0.447046E-06  0.118262E-06
  0.236341E+02  0.111951E+02  0.272875E-06  0.855798E-07
  0.236341E+02  0.136829E+02  0.445994E-06  0.840250E-07
  0.236341E+02  0.161707E+02  0.306009E-06  0.402892E-07
  0.236341E+02  0.186585E+02  0.110227E-06 -0.150458E-07
  0.236341E+02  0.211463E+02  0.349822E-06 -0.246627E-07
  0.236341E+02  0.236341E+02  0.379649E-06  0.221486E-07
  0.236341E+02  0.261220E+02  0.763059E-06  0.139207E-07
  0.236341E+02  0.286098E+02  0.864823E-06  0.511175E-07
  0.236341E+02  0.310976E+02  0.854356E-06  0.155603E-06
  0.236341E+02  0.335854E+02  0.469136E-06  0.138921E-06
  0.236341E+02  0.360732E+02  0.434499E-07  0.292788E-07
  0.236341E+02  0.385610E+02  0.177765E-06  0.779935E-07
  0.236341E+02  0.410488E+02  0.176641E-06  0.457530E-07
  0.236341E+02  0.435366E+02  0.295839E-06  0.311063E-07
  0.236341E+02  0.460244E+02  0.313577E-06  0.653816E-07
  0.236341E+02  0.485122E+02  0.200696E-06  0.413643E-07
  0.236341E+02  0.510000E+02  0.220562E-06  0.300986E-07
  0.236341E+02  0.534878E+02  0.514128E-06  0.597881E-08
  0.236341E+02  0.559756E+02  0.133704E-05 -0.212012E-06
  0.236341E+02  0.584634E+02  0.812020E-06 -0.212682E-06
  0.236341E+02  0.609512E+02  0.549988E-06 -0.890561E-07
  0.236341E+02  0.634390E+02  0.352586E-06  0.279704E-08
  0.236341E+02  0.659268E+02  0.265252E-06  0.895819E-08
  0.236341E+02  0.684146E+02  0.378292E-06 -0.289867E-07
  0.236341E+02  0.709024E+02  0.455853E-06 -0.999607E-08
  0.236341E+02  0.733902E+02  0.536223E-06  0.492192E-07
  0.236341E+02  0.758780E+02  0.354650E-06  0.881125E-07
  0.236341E+02  0.783659E+02  0.349590E-06  0.112740E-06
  0.236341E+02  0.808537E+02  0.738140E-06  0.221544E-06
  0.236341E+02  0.833415E+02  0.614048E-06  0.596668E-07
  0.236341E+02  0.858293E+02  0.330191E-06 -0.574981E-07
  0.236341E+02  0.883171E+02  0.750938E-06 -0.156331E-06
  0.236341E+02  0.908049E+02  0.508893E-06 -0.891066E-07
  0.236341E+02  0.932927E+02  0.503005E-06 -0.683479E-07
  0.236341E+02  0.957805E+02  0.793130E-06  0.236050E-07
  0.236341E+02  0.982683E+02  0.280450E-06  0.297200E-07
  0.236341E+02  0.100756E+03  0.143667E-06  0.956433E-08
  0.261220E+02  0.124390E+01  0.815514E-06 -0.627990E-07
  0.261220E+02  0.373171E+01  0.642265E-06 -0.845216E-07
  0.261220E+02  0.621951E+01  0.319974E-06  0.404236E-07
  0.261220E+02  0.870732E+01  0.259493E-06  0.550106E-07
  0.261220E+02  0.111951E+02  0.253149E-06  0.359600E-07
  0.261220E+02  0.136829E+02  0.220913E-06  0.243124E-07
  0.261220E+02  0.161707E+02  0.185216E-06  0.381666E-07
  0.261220E+02  0.186585E+02  0.176119E-06  0.121045E-07
  0.261220E+02  0.211463E+02  0.179553E-06 -0.105731E-07
  0.261220E+02  0.236341E+02  0.180663E-06 -0.153822E-07
  0.261220E+02  0.261220E+02  0.534163E-06  0.161123E-07
  0.261220E+02  0.286098E+02  0.634276E-06  0.654185E-07
  0.261220E+02  0.310976E+02  0.584622E-06  0.429257E-07
  0.261220E+02  0.335854E+02  0.375244E-06  0.421562E-07
  0.261220E+02  0.360732E+02  0.859605E-07  0.294186E-07
  0.261220E+02  0.385610E+02  0.120736E-06  0.184535E-07
  0.261220E+02  0.410488E+02  0.154074E-06  0.288802E-07
  0.261220E+02  0.435366E+02  0.371357E-06  0.452199E-07
  0.261220E+02  0.460244E+02  0.156733E-06  0.331708E-07
  0.261220E+02  0.485122E+02  0.303799E-06  0.309723E-07
  0.261220E+02  0.510000E+02  0.169763E-06 -0.152505E-07
  0.261220E+02  0.534878E+02  0.476720E-06 -0.104944E-06
  0.261220E+02  0.559756E+02  0.136698E-05 -0.213477E-06
  0.261220E+02  0.584634E+02  0.919392E-06 -0.131299E-06
  0.261220E+02  0.609512E+02  0.500921E-06 -0.360139E-07
  0.261220E+02  0.634390E+02  0.400888E-06  0.153281E-07
  0.261220E+02  0.659268E+02  0.480918E-06  0.493765E-07
  0.261220E+02  0.684146E+02  0.355574E-06  0.535098E-07
  0.261220E+02  0.709024E+02  0.486246E-06  0.461851E-07
  0.261220E+02  0.733902E+02  0.392258E-06  0.582764E-07
  0.261220E+02  0.758780E+02  0.208736E-06  0.377962E-07
  0.261220E+02  0.783659E+02  0.188226E-06  0.170855E-07
  0.261220E+02  0.808537E+02  0.447429E-06  0.639362E-07
  0.261220E+02  0.833415E+02  0.473801E-06  0.708009E-07
  0.261220E+02  0.858293E+02  0.280120E-06 -0.108903E-07
  0.261220E+02  0.883171E+02  0.635613E-06 -0.906978E-07
  0.261220E+02  0.908049E+02  0.656750E-06 -0.827721E-07
  0.261220E+02  0.932927E+02  0.341719E-06 -0.421688E-07
  0.261220E+02  0.957805E+02  0.529669E-06 -0.344451E-07
  0.261220E+02  0.982683E+02  0.206324E-06  0.285010E-08
  0.261220E+02  0.100756E+03  0.217408E-06  0.194334E-07
  0.286098E+02  0.124390E+01  0.995540E-06  0.639178E-08
  0.286098E+02  0.373171E+01  0.388865E-06  0.482248E-07
  0.286098E+02  0.621951E+01  0.310913E-06  0.659888E-07
  0.286098E+02  0.870732E+01  0.331066E-06  0.604309E-07
  0.286098E+02  0.111951E+02  0.194389E-06  0.422981E-07
  0.286098E+02  0.136829E+02  0.172008E-06  0.418466E-07
  0.286098E+02  0.161707E+02  0.161381E-06  0.424349E-07
  0.286098E+02  0.186585E+02  0.285046E-06  0.440473E-07
  0.286098E+02  0.211463E+02  0.195975E-06 -0.302816E-08
  0.286098E+02  0.236341E+02  0.171675E-06 -0.102266E-07
  0.286098E+02  0.261220E+02  0.227516E-06  0.488899E-08
  0.286098E+02  0.286098E+02  0.411454E-06  0.369919E-09
  0.286098E+02  0.310976E+02  0.400853E-06  0.226754E-08
  0.286098E+02  0.335854E+02  0.289557E-06  0.358700E-07
  0.286098E+02  0.360732E+02  0.207807E-06  0.291991E-07
  0.286098E+02  0.385610E+02  0.100220E-06  0.466923E-08
  0.286098E+02  0.410488E+02  0.197170E-06 -0.874324E-08
  0.286098E+02  0.435366E+02  0.922437E-07  0.165118E-08
  0.286098E+02  0.460244E+02  0.120146E-06  0.843448E-08
  0.286098E+02  0.485122E+02  0.126898E-06 -0.952230E-08
  0.286098E+02  0.510000E+02  0.282772E-06 -0.599092E-07
  0.286098E+02  0.534878E+02  0.478449E-06 -0.133175E-06
  0.286098E+02  0.559756E+02  0.102129E-05 -0.997882E-07
  0.286098E+02  0.584634E+02  0.651938E-06 -0.469201E-08
  0.286098E+02  0.609512E+02  0.476203E-06  0.131880E-07
  0.286098E+02  0.634390E+02  0.276936E-06  0.110140E-07
  0.286098E+02  0.659268E+02  0.281648E-06  0.314500E-07
  0.286098E+02  0.684146E+02  0.326507E-06  0.769675E-07
  0.286098E+02  0.709024E+02  0.527280E-06  0.133026E-06
  0.286098E+02  0.733902E+02  0.341309E-06  0.100238E-06
  0.286098E+02  0.758780E+02  0.309735E-06  0.621959E-07
  0.286098E+02  0.783659E+02  0.239810E-06  0.290421E-07
  0.286098E+02  0.808537E+02  0.217669E-06  0.269748E-07
  0.286098E+02  0.833415E+02  0.291506E-06  0.354090E-07
  0.286098E+02  0.858293E+02  0.135184E-06  0.110404E-07
  0.286098E+02  0.883171E+02  0.551272E-06 -0.444306E-07
  0.286098E+02  0.908049E+02  0.478736E-06 -0.529362E-07
  0.286098E+02  0.932927E+02  0.375659E-06 -0.641505E-07
  0.286098E+02  0.957805E+02  0.371734E-06 -0.872832E-07
  0.286098E+02  0.982683E+02  0.106456E-06 -0.127686E-07
  0.286098E+02  0.100756E+03  0.118316E-06 -0.782710E-08
  0.310976E+02  0.124390E+01  0.980751E-06  0.114378E-06
  0.310976E+02  0.373171E+01  0.527281E-06  0.153229E-06
  0.310976E+02  0.621951E+01  0.428949E-06  0.893611E-07
  0.310976E+02  0.870732E+01  0.206396E-06  0.565642E-07
  0.310976E+02  0.111951E+02  0.145923E-06  0.399951E-07
  0.310976E+02  0.136829E+02  0.131350E-06  0.288145E-07
  0.310976E+02  0.161707E+02  0.151268E-06  0.270892E-07
  0.310976E+02  0.186585E+02  0.164316E-06  0.170580E-07
  0.310976E+02  0.211463E+02  0.167617E-06  0.103099E-07
  0.310976E+02  0.236341E+02  0.854348E-07  0.206956E-08
  0.310976E+02  0.261220E+02  0.144411E-06 -0.106776E-07
  0.310976E+02  0.286098E+02  0.446422E-06 -0.400633E-07
  0.310976E+02  0.310976E+02  0.266594E-06 -0.859393E-08
  0.310976E+02  0.335854E+02  0.286431E-06  0.613275E-08
  0.310976E+02  0.360732E+02  0.199397E-06  0.161631E-07
  0.310976E+02  0.385610E+02  0.126841E-06  0.809479E-09
  0.310976E+02  0.410488E+02  0.140583E-06 -0.176601E-07
  0.310976E+02  0.435366E+02  0.705073E-07 -0.823988E-08
  0.310976E+02  0.460244E+02  0.977843E-07 -0.612726E-08
  0.310976E+02  0.485122E+02  0.128760E-06 -0.233440E-07
  0.310976E+02  0.510000E+02  0.316402E-06 -0.554428E-07
  0.310976E+02  0.534878E+02  0.550917E-06 -0.438877E-07
  0.310976E+02  0.559756E+02  0.666544E-06 -0.405805E-07
  0.310976E+02  0.584634E+02  0.451658E-06 -0.375591E-07
  0.310976E+02  0.609512E+02  0.242874E-06  0.181720E-08
  0.310976E+02  0.634390E+02  0.245854E-06  0.205967E-07
  0.310976E+02  0.659268E+02  0.134481E-06  0.175477E-07
  0.310976E+02  0.684146E+02  0.309108E-06  0.293957E-07
  0.310976E+02  0.709024E+02  0.337429E-06  0.680941E-07
  0.310976E+02  0.733902E+02  0.700901E-06  0.241016E-06
  0.310976E+02  0.758780E+02  0.217074E-06  0.563748E-07
  0.310976E+02  0.783659E+02  0.192597E-06  0.480205E-07