variables="x","h","c"
zone i=     42,T= "1dxhc;t= 0.1500E+03y,z:   1   1"
    0.00000E+00    0.50000E+00    0.00000E+00
    0.24878E+01    0.49612E+00    0.44570E-24
    0.49756E+01    0.49136E+00    0.57070E-23
    0.74634E+01    0.48736E+00    0.39209E-22
    0.99512E+01    0.48054E+00    0.51556E-21
    0.12439E+02    0.47556E+00    0.43998E-20
    0.14927E+02    0.46837E+00    0.31624E-19
    0.17415E+02    0.46391E+00    0.13899E-18
    0.19902E+02    0.45689E+00    0.50803E-18
    0.22390E+02    0.44723E+00    0.12308E-17
    0.24878E+02    0.43214E+00    0.56319E-17
    0.27366E+02    0.42580E+00    0.13968E-16
    0.29854E+02    0.42064E+00    0.50100E-16
    0.32341E+02    0.41777E+00    0.11279E-15
    0.34829E+02    0.41271E+00    0.28466E-15
    0.37317E+02    0.40929E+00    0.87201E-15
    0.39805E+02    0.40320E+00    0.10057E-13
    0.42293E+02    0.39959E+00    0.51052E-13
    0.44780E+02    0.39561E+00    0.18488E-12
    0.47268E+02    0.38836E+00    0.14382E-11
    0.49756E+02    0.38311E+00    0.48738E-11
    0.52244E+02    0.37743E+00    0.52275E-10
    0.54732E+02    0.37368E+00    0.31324E-09
    0.57220E+02    0.36890E+00    0.19704E-08
    0.59707E+02    0.36523E+00    0.10721E-07
    0.62195E+02    0.36054E+00    0.44499E-07
    0.64683E+02    0.35308E+00    0.16937E-06
    0.67171E+02    0.34701E+00    0.64944E-06
    0.69659E+02    0.34174E+00    0.32053E-05
    0.72146E+02    0.33834E+00    0.12793E-04
    0.74634E+02    0.33383E+00    0.62913E-04
    0.77122E+02    0.32974E+00    0.23221E-03
    0.79610E+02    0.32533E+00    0.22054E-03
    0.82098E+02    0.32212E+00   -0.24859E-02
    0.84585E+02    0.32949E+00    0.52011E-01
    0.87073E+02    0.34317E+00    0.24530E+00
    0.89561E+02    0.35449E+00    0.48745E+00
    0.92049E+02    0.36497E+00    0.64122E+00
    0.94537E+02    0.37276E+00    0.74738E+00
    0.97024E+02    0.38152E+00    0.80595E+00
    0.99512E+02    0.39436E+00    0.90594E+00
    0.10200E+03    0.40015E+00    0.10000E+01
zone i=     42,T= "1dxhc;t= 0.1500E+03y,z:   1  12"
    0.00000E+00    0.50000E+00    0.00000E+00
    0.24878E+01    0.49708E+00   -0.69662E-24
    0.49756E+01    0.49446E+00   -0.40468E-23
    0.74634E+01    0.48669E+00   -0.29442E-22
    0.99512E+01    0.48083E+00   -0.18535E-21
    0.12439E+02    0.47509E+00   -0.15418E-20
    0.14927E+02    0.47221E+00   -0.41614E-20
    0.17415E+02    0.46449E+00   -0.25328E-19
    0.19902E+02    0.45174E+00   -0.20425E-18
    0.22390E+02    0.44387E+00   -0.48630E-17
    0.24878E+02    0.43690E+00   -0.62100E-16
    0.27366E+02    0.43030E+00   -0.56376E-15
    0.29854E+02    0.42314E+00   -0.11336E-14
    0.32341E+02    0.41472E+00   -0.10786E-14
    0.34829E+02    0.40927E+00   -0.31786E-14
    0.37317E+02    0.40649E+00   -0.57808E-14
    0.39805E+02    0.40275E+00   -0.13080E-13
    0.42293E+02    0.39907E+00   -0.26128E-13
    0.44780E+02    0.39326E+00   -0.11419E-12
    0.47268E+02    0.38840E+00   -0.26469E-12
    0.49756E+02    0.38447E+00   -0.30415E-12
    0.52244E+02    0.38089E+00    0.11423E-12
    0.54732E+02    0.37709E+00    0.35517E-12
    0.57220E+02    0.37281E+00   -0.13380E-11
    0.59707E+02    0.36836E+00   -0.11458E-10
    0.62195E+02    0.36136E+00   -0.12752E-09
    0.64683E+02    0.35185E+00   -0.13442E-08
    0.67171E+02    0.34466E+00   -0.35472E-08
    0.69659E+02    0.34005E+00   -0.95794E-08
    0.72146E+02    0.33553E+00   -0.20047E-07
    0.74634E+02    0.33046E+00   -0.32809E-07
    0.77122E+02    0.32453E+00   -0.42468E-08
    0.79610E+02    0.31780E+00   -0.13075E-06
    0.82098E+02    0.30823E+00   -0.10376E-04
    0.84585E+02    0.30221E+00   -0.13347E-03
    0.87073E+02    0.29311E+00    0.14733E-03
    0.89561E+02    0.28285E+00    0.35400E-02
    0.92049E+02    0.26831E+00    0.18383E-01
    0.94537E+02    0.25396E+00    0.75889E-01
    0.97024E+02    0.23542E+00    0.13653E+00
    0.99512E+02    0.19581E+00    0.52066E+00
    0.10200E+03    0.16005E+00    0.10000E+01
zone i=     42,T= "1dxhc;t= 0.1500E+03y,z:   1  22"
    0.00000E+00    0.49812E+00   -0.55339E-17
    0.24878E+01    0.49047E+00   -0.19538E-16
    0.49756E+01    0.48195E+00   -0.71297E-16
    0.74634E+01    0.47415E+00   -0.28781E-15
    0.99512E+01    0.46874E+00   -0.77869E-15
    0.12439E+02    0.46390E+00   -0.14806E-14
    0.14927E+02    0.45624E+00   -0.37174E-14
    0.17415E+02    0.43909E+00   -0.20177E-13
    0.19902E+02    0.42279E+00   -0.61128E-13
    0.22390E+02    0.41083E+00   -0.17435E-12
    0.24878E+02    0.40147E+00   -0.28121E-12
    0.27366E+02    0.39249E+00   -0.47316E-12
    0.29854E+02    0.38017E+00   -0.80144E-12
    0.32341E+02    0.37099E+00   -0.12044E-11
    0.34829E+02    0.36302E+00   -0.25214E-11
    0.37317E+02    0.35190E+00   -0.10904E-10
    0.39805E+02    0.34009E+00   -0.79126E-10
    0.42293E+02    0.33333E+00   -0.15496E-09
    0.44780E+02    0.31457E+00   -0.67022E-09
    0.47268E+02    0.29721E+00   -0.14489E-08
    0.49756E+02    0.27784E+00   -0.66686E-08
    0.52244E+02    0.26642E+00   -0.32660E-07
    0.54732E+02    0.26088E+00   -0.92476E-07
    0.57220E+02    0.25314E+00   -0.29731E-06
    0.59707E+02    0.23965E+00   -0.11907E-05
    0.62195E+02    0.22098E+00   -0.29955E-05
    0.64683E+02    0.21088E+00   -0.61043E-05
    0.67171E+02    0.20025E+00   -0.90395E-05
    0.69659E+02    0.19406E+00   -0.10659E-04
    0.72146E+02    0.19017E+00   -0.11929E-04
    0.74634E+02    0.18433E+00   -0.15369E-04
    0.77122E+02    0.17667E+00   -0.17747E-04
    0.79610E+02    0.17069E+00    0.14604E-05
    0.82098E+02    0.16430E+00   -0.44065E-05
    0.84585E+02    0.15790E+00   -0.30393E-04
    0.87073E+02    0.15007E+00    0.20591E-04
    0.89561E+02    0.13750E+00   -0.33748E-04
    0.92049E+02    0.12669E+00   -0.16153E-04
    0.94537E+02    0.11336E+00   -0.18989E-03
    0.97024E+02    0.79069E-01    0.20080E-04
    0.99512E+02    0.27329E-01   -0.45817E-03
    0.10200E+03    0.75651E-02   -0.58907E-03
zone i=     42,T= "1dxhc;t= 0.3000E+03y,z:   1   1"
    0.00000E+00    0.50000E+00    0.00000E+00
    0.24878E+01    0.49614E+00    0.12150E-20
    0.49756E+01    0.49139E+00    0.12276E-19
    0.74634E+01    0.48739E+00    0.65529E-19
    0.99512E+01    0.48059E+00    0.66646E-18
    0.12439E+02    0.47563E+00    0.43754E-17
    0.14927E+02    0.46846E+00    0.25022E-16
    0.17415E+02    0.46401E+00    0.90548E-16
    0.19902E+02    0.45701E+00    0.28087E-15
    0.22390E+02    0.44737E+00    0.58904E-15
    0.24878E+02    0.43231E+00    0.22858E-14
    0.27366E+02    0.42598E+00    0.49147E-14
    0.29854E+02    0.42083E+00    0.15034E-13
    0.32341E+02    0.41797E+00    0.27594E-13
    0.34829E+02    0.41292E+00    0.57253E-13
    0.37317E+02    0.40950E+00    0.14294E-12
    0.39805E+02    0.40341E+00    0.12249E-11
    0.42293E+02    0.39981E+00    0.51262E-11
    0.44780E+02    0.39583E+00    0.15265E-10
    0.47268E+02    0.38857E+00    0.10258E-09
    0.49756E+02    0.38331E+00    0.36824E-09
    0.52244E+02    0.37762E+00    0.35879E-08
    0.54732E+02    0.37387E+00    0.20283E-07
    0.57220E+02    0.36907E+00    0.12862E-06
    0.59707E+02    0.36538E+00    0.67190E-06
    0.62195E+02    0.36067E+00    0.29760E-05
    0.64683E+02    0.35317E+00    0.12243E-04
    0.67171E+02    0.34707E+00    0.43862E-04
    0.69659E+02    0.34180E+00    0.17471E-03
    0.72146E+02    0.33844E+00    0.54197E-03
    0.74634E+02    0.33418E+00    0.19800E-02
    0.77122E+02    0.33076E+00    0.47131E-02
    0.79610E+02    0.32849E+00    0.10792E-02
    0.82098E+02    0.33388E+00    0.12110E+00
    0.84585E+02    0.35032E+00    0.30532E+00
    0.87073E+02    0.36435E+00    0.49721E+00
    0.89561E+02    0.37317E+00    0.69401E+00
    0.92049E+02    0.38054E+00    0.79708E+00
    0.94537E+02    0.38589E+00    0.86262E+00
    0.97024E+02    0.39180E+00    0.90209E+00
    0.99512E+02    0.40051E+00    0.95822E+00
    0.10200E+03    0.40014E+00    0.10000E+01
zone i=     42,T= "1dxhc;t= 0.3000E+03y,z:   1  12"
    0.00000E+00    0.50000E+00    0.00000E+00
    0.24878E+01    0.49709E+00   -0.26016E-20
    0.49756E+01    0.49448E+00   -0.11730E-19
    0.74634E+01    0.48673E+00   -0.63254E-19
    0.99512E+01    0.48088E+00   -0.29440E-18
    0.12439E+02    0.47516E+00   -0.18325E-17
    0.14927E+02    0.47229E+00   -0.39499E-17
    0.17415E+02    0.46459E+00   -0.19038E-16
    0.19902E+02    0.45187E+00   -0.11361E-15
    0.22390E+02    0.44401E+00   -0.19912E-14
    0.24878E+02    0.43706E+00   -0.18269E-13
    0.27366E+02    0.43047E+00   -0.12978E-12
    0.29854E+02    0.42333E+00   -0.25612E-12
    0.32341E+02    0.41492E+00   -0.24796E-12
    0.34829E+02    0.40948E+00   -0.61756E-12
    0.37317E+02    0.40670E+00   -0.11614E-11
    0.39805E+02    0.40296E+00   -0.28867E-11
    0.42293E+02    0.39928E+00   -0.77256E-11
    0.44780E+02    0.39347E+00   -0.22114E-10
    0.47268E+02    0.38861E+00   -0.46469E-10
    0.49756E+02    0.38468E+00   -0.50645E-10
    0.52244E+02    0.38110E+00   -0.33840E-10
    0.54732E+02    0.37729E+00   -0.45360E-10
    0.57220E+02    0.37299E+00   -0.11594E-09
    0.59707E+02    0.36851E+00   -0.64896E-09
    0.62195E+02    0.36147E+00   -0.50850E-08
    0.64683E+02    0.35187E+00   -0.40585E-07
    0.67171E+02    0.34459E+00   -0.98204E-07
    0.69659E+02    0.33987E+00   -0.21454E-06
    0.72146E+02    0.33514E+00   -0.45285E-06
    0.74634E+02    0.32970E+00   -0.82726E-06
    0.77122E+02    0.32303E+00   -0.35871E-05
    0.79610E+02    0.31508E+00   -0.10234E-04
    0.82098E+02    0.30308E+00   -0.72850E-04
    0.84585E+02    0.29544E+00   -0.67744E-04
    0.87073E+02    0.28474E+00    0.23599E-02
    0.89561E+02    0.27367E+00    0.96950E-02
    0.92049E+02    0.25902E+00    0.34113E-01
    0.94537E+02    0.24538E+00    0.10005E+00
    0.97024E+02    0.22825E+00    0.16259E+00
    0.99512E+02    0.19223E+00    0.53194E+00
    0.10200E+03    0.16005E+00    0.10000E+01
zone i=     42,T= "1dxhc;t= 0.3000E+03y,z:   1  22"
    0.00000E+00    0.49812E+00   -0.21856E-14
    0.24878E+01    0.49047E+00   -0.60050E-14
    0.49756E+01    0.48194E+00   -0.19668E-13
    0.74634E+01    0.47414E+00   -0.64202E-13
    0.99512E+01    0.46872E+00   -0.14659E-12
    0.12439E+02    0.46387E+00   -0.26254E-12
    0.14927E+02    0.45621E+00   -0.57872E-12
    0.17415E+02    0.43906E+00   -0.23272E-11
    0.19902E+02    0.42274E+00   -0.56616E-11
    0.22390E+02    0.41077E+00   -0.13884E-10
    0.24878E+02    0.40140E+00   -0.21317E-10
    0.27366E+02    0.39242E+00   -0.35556E-10
    0.29854E+02    0.38009E+00   -0.58266E-10
    0.32341E+02    0.37090E+00   -0.81715E-10
    0.34829E+02    0.36293E+00   -0.16475E-09
    0.37317E+02    0.35180E+00   -0.59609E-09
    0.39805E+02    0.33997E+00   -0.30979E-08
    0.42293E+02    0.33321E+00   -0.57098E-08
    0.44780E+02    0.31444E+00   -0.18587E-07
    0.47268E+02    0.29706E+00   -0.35840E-07
    0.49756E+02    0.27767E+00   -0.12702E-06
    0.52244E+02    0.26623E+00   -0.41076E-06
    0.54732E+02    0.26069E+00   -0.85141E-06
    0.57220E+02    0.25293E+00   -0.21262E-05
    0.59707E+02    0.23943E+00   -0.55900E-05
    0.62195E+02    0.22072E+00   -0.10481E-04
    0.64683E+02    0.21059E+00   -0.18029E-04
    0.67171E+02    0.19994E+00   -0.24646E-04
    0.69659E+02    0.19374E+00   -0.29568E-04
    0.72146E+02    0.18984E+00   -0.33756E-04
    0.74634E+02    0.18399E+00   -0.42674E-04
    0.77122E+02    0.17631E+00   -0.48978E-04
    0.79610E+02    0.17031E+00   -0.23401E-04
    0.82098E+02    0.16392E+00   -0.47569E-04
    0.84585E+02    0.15751E+00   -0.86700E-04
    0.87073E+02    0.14967E+00   -0.80951E-05
    0.89561E+02    0.13710E+00   -0.78221E-04
    0.92049E+02    0.12629E+00   -0.70516E-04
    0.94537E+02    0.11299E+00   -0.25059E-03
    0.97024E+02    0.78753E-01   -0.73804E-05
    0.99512E+02    0.27198E-01   -0.45406E-03
    0.10200E+03    0.75279E-02   -0.62559E-03
zone i=     42,T= "1dxhc;t= 0.4500E+03y,z:   1   1"
    0.00000E+00    0.50000E+00    0.00000E+00
    0.24878E+01    0.49615E+00    0.20104E-18
    0.49756E+01    0.49141E+00    0.16986E-17
    0.74634E+01    0.48743E+00    0.75465E-17
    0.99512E+01    0.48065E+00    0.63444E-16
    0.12439E+02    0.47569E+00    0.34161E-15
    0.14927E+02    0.46854E+00    0.16500E-14
    0.17415E+02    0.46411E+00    0.52019E-14
    0.19902E+02    0.45712E+00    0.14396E-13
    0.22390E+02    0.44751E+00    0.27387E-13
    0.24878E+02    0.43249E+00    0.94276E-13
    0.27366E+02    0.42618E+00    0.18654E-12
    0.29854E+02    0.42104E+00    0.51019E-12
    0.32341E+02    0.41819E+00    0.84308E-12
    0.34829E+02    0.41315E+00    0.16354E-11
    0.37317E+02    0.40974E+00    0.39378E-11
    0.39805E+02    0.40367E+00    0.30929E-10
    0.42293E+02    0.40007E+00    0.14233E-09
    0.44780E+02    0.39610E+00    0.41590E-09
    0.47268E+02    0.38887E+00    0.27393E-08
    0.49756E+02    0.38362E+00    0.99572E-08
    0.52244E+02    0.37794E+00    0.81569E-07
    0.54732E+02    0.37419E+00    0.37131E-06
    0.57220E+02    0.36940E+00    0.19301E-05
    0.59707E+02    0.36572E+00    0.79296E-05
    0.62195E+02    0.36102E+00    0.29065E-04
    0.64683E+02    0.35354E+00    0.10196E-03
    0.67171E+02    0.34748E+00    0.31553E-03
    0.69659E+02    0.34227E+00    0.10497E-02
    0.72146E+02    0.33904E+00    0.28581E-02
    0.74634E+02    0.33524E+00    0.91756E-02
    0.77122E+02    0.33355E+00    0.62774E-02
    0.79610E+02    0.33517E+00    0.12612E+00
    0.82098E+02    0.34600E+00    0.31149E+00
    0.84585E+02    0.36235E+00    0.47041E+00
    0.87073E+02    0.37415E+00    0.62693E+00
    0.89561E+02    0.38123E+00    0.77658E+00
    0.92049E+02    0.38706E+00    0.85413E+00
    0.94537E+02    0.39125E+00    0.90232E+00
    0.97024E+02    0.39586E+00    0.93190E+00
    0.99512E+02    0.40283E+00    0.97385E+00
    0.10200E+03    0.40014E+00    0.10000E+01
zone i=     42,T= "1dxhc;t= 0.4500E+03y,z:   1  12"
    0.00000E+00    0.50000E+00    0.00000E+00
    0.24878E+01    0.49710E+00   -0.36060E-18
    0.49756E+01    0.49449E+00   -0.14138E-17
    0.74634E+01    0.48676E+00   -0.63616E-17
    0.99512E+01    0.48094E+00   -0.24731E-16
    0.12439E+02    0.47523E+00   -0.12876E-15
    0.14927E+02    0.47236E+00   -0.24499E-15
    0.17415E+02    0.46468E+00   -0.99820E-15
    0.19902E+02    0.45200E+00   -0.48419E-14
    0.22390E+02    0.44416E+00   -0.66958E-13
    0.24878E+02    0.43723E+00   -0.47362E-12
    0.27366E+02    0.43066E+00   -0.27833E-11
    0.29854E+02    0.42353E+00   -0.54406E-11
    0.32341E+02    0.41514E+00   -0.55030E-11
    0.34829E+02    0.40972E+00   -0.12119E-10
    0.37317E+02    0.40694E+00   -0.21786E-10
    0.39805E+02    0.40322E+00   -0.49800E-10
    0.42293E+02    0.39954E+00   -0.11818E-09
    0.44780E+02    0.39375E+00   -0.30683E-09
    0.47268E+02    0.38890E+00   -0.65833E-09
    0.49756E+02    0.38498E+00   -0.77047E-09
    0.52244E+02    0.38140E+00   -0.65925E-09
    0.54732E+02    0.37760E+00   -0.85300E-09
    0.57220E+02    0.37331E+00   -0.14435E-08
    0.59707E+02    0.36884E+00   -0.60340E-08
    0.62195E+02    0.36178E+00   -0.36587E-07
    0.64683E+02    0.35217E+00   -0.23497E-06
    0.67171E+02    0.34484E+00   -0.51689E-06
    0.69659E+02    0.34004E+00   -0.86999E-06
    0.72146E+02    0.33512E+00   -0.22677E-05
    0.74634E+02    0.32932E+00   -0.59213E-05
    0.77122E+02    0.32202E+00   -0.19880E-04
    0.79610E+02    0.31315E+00   -0.11721E-04
    0.82098E+02    0.29977E+00   -0.10936E-04
    0.84585E+02    0.29147E+00    0.45093E-03
    0.87073E+02    0.28035E+00    0.47709E-02
    0.89561E+02    0.26922E+00    0.14397E-01
    0.92049E+02    0.25477E+00    0.43549E-01
    0.94537E+02    0.24154E+00    0.11383E+00
    0.97024E+02    0.22509E+00    0.17779E+00
    0.99512E+02    0.19067E+00    0.53868E+00
    0.10200E+03    0.16005E+00    0.10000E+01
zone i=     42,T= "1dxhc;t= 0.4500E+03y,z:   1  22"
    0.00000E+00    0.49811E+00   -0.64012E-13
    0.24878E+01    0.49046E+00   -0.14349E-12
    0.49756E+01    0.48193E+00   -0.44059E-12
    0.74634E+01    0.47412E+00   -0.12379E-11
    0.99512E+01    0.46871E+00   -0.25368E-11
    0.12439E+02    0.46386E+00   -0.43672E-11
    0.14927E+02    0.45620E+00   -0.89787E-11
    0.17415E+02    0.43903E+00   -0.29108E-10
    0.19902E+02    0.42271E+00   -0.61303E-10
    0.22390E+02    0.41073E+00   -0.13579E-09
    0.24878E+02    0.40136E+00   -0.20458E-09
    0.27366E+02    0.39237E+00   -0.34179E-09
    0.29854E+02    0.38004E+00   -0.55576E-09
    0.32341E+02    0.37085E+00   -0.78594E-09
    0.34829E+02    0.36287E+00   -0.15614E-08
    0.37317E+02    0.35173E+00   -0.49826E-08
    0.39805E+02    0.33990E+00   -0.20088E-07
    0.42293E+02    0.33314E+00   -0.33798E-07
    0.44780E+02    0.31435E+00   -0.92801E-07
    0.47268E+02    0.29696E+00   -0.16977E-06
    0.49756E+02    0.27756E+00   -0.51107E-06
    0.52244E+02    0.26612E+00   -0.12723E-05
    0.54732E+02    0.26057E+00   -0.22448E-05
    0.57220E+02    0.25281E+00   -0.49344E-05
    0.59707E+02    0.23928E+00   -0.10293E-04
    0.62195E+02    0.22056E+00   -0.16803E-04
    0.64683E+02    0.21041E+00   -0.26714E-04
    0.67171E+02    0.19975E+00   -0.36027E-04
    0.69659E+02    0.19354E+00   -0.44315E-04
    0.72146E+02    0.18964E+00   -0.52001E-04
    0.74634E+02    0.18377E+00   -0.65550E-04
    0.77122E+02    0.17609E+00   -0.77427E-04
    0.79610E+02    0.17008E+00   -0.55907E-04
    0.82098E+02    0.16368E+00   -0.91510E-04
    0.84585E+02    0.15726E+00   -0.13639E-03
    0.87073E+02    0.14942E+00   -0.55480E-04
    0.89561E+02    0.13684E+00   -0.13104E-03
    0.92049E+02    0.12604E+00   -0.13680E-03
    0.94537E+02    0.11274E+00   -0.31810E-03
    0.97024E+02    0.78552E-01   -0.67604E-04
    0.99512E+02    0.27114E-01   -0.48153E-03
    0.10200E+03    0.75040E-02   -0.68549E-03
zone i=     42,T= "1dxhc;t= 0.6000E+03y,z:   1   1"
    0.00000E+00    0.50000E+00    0.00000E+00
    0.24878E+01    0.49616E+00    0.78470E-17
    0.49756E+01    0.49143E+00    0.57554E-16
    0.74634E+01    0.48746E+00    0.22181E-15
    0.99512E+01    0.48069E+00    0.16062E-14
    0.12439E+02    0.47575E+00    0.74087E-14
    0.14927E+02    0.46862E+00    0.31474E-13
    0.17415E+02    0.46419E+00    0.89908E-13
    0.19902E+02    0.45722E+00    0.23044E-12
    0.22390E+02    0.44763E+00    0.41465E-12
    0.24878E+02    0.43265E+00    0.13251E-11
    0.27366E+02    0.42635E+00    0.25966E-11
    0.29854E+02    0.42123E+00    0.67909E-11
    0.32341E+02    0.41838E+00    0.11091E-10
    0.34829E+02    0.41335E+00    0.22494E-10
    0.37317E+02    0.40996E+00    0.56600E-10
    0.39805E+02    0.40390E+00    0.42460E-09
    0.42293E+02    0.40031E+00    0.18370E-08
    0.44780E+02    0.39635E+00    0.49555E-08
    0.47268E+02    0.38914E+00    0.28721E-07
    0.49756E+02    0.38390E+00    0.90757E-07
    0.52244E+02    0.37825E+00    0.61328E-06
    0.54732E+02    0.37451E+00    0.22466E-05
    0.57220E+02    0.36974E+00    0.98996E-05
    0.59707E+02    0.36607E+00    0.34071E-04
    0.62195E+02    0.36139E+00    0.11012E-03
    0.64683E+02    0.35396E+00    0.35249E-03
    0.67171E+02    0.34794E+00    0.10159E-02
    0.69659E+02    0.34286E+00    0.30288E-02
    0.72146E+02    0.33977E+00    0.72506E-02
    0.74634E+02    0.33734E+00    0.66326E-02
    0.77122E+02    0.33843E+00    0.17966E+00
    0.79610E+02    0.34322E+00    0.30312E+00
    0.82098E+02    0.35506E+00    0.47648E+00
    0.84585E+02    0.36979E+00    0.58757E+00
    0.87073E+02    0.37997E+00    0.70595E+00
    0.89561E+02    0.38592E+00    0.82411E+00
    0.92049E+02    0.39078E+00    0.88444E+00
    0.94537E+02    0.39428E+00    0.92279E+00
    0.97024E+02    0.39813E+00    0.94553E+00
    0.99512E+02    0.40410E+00    0.98111E+00
    0.10200E+03    0.40014E+00    0.10000E+01
zone i=     42,T= "1dxhc;t= 0.6000E+03y,z:   1  12"
    0.00000E+00    0.50000E+00    0.00000E+00
    0.24878E+01    0.49711E+00   -0.10299E-16
    0.49756E+01    0.49451E+00   -0.36806E-16
    0.74634E+01    0.48680E+00   -0.14553E-15
    0.99512E+01    0.48098E+00   -0.49814E-15
    0.12439E+02    0.47528E+00   -0.22759E-14
    0.14927E+02    0.47243E+00   -0.40207E-14
    0.17415E+02    0.46476E+00   -0.14360E-13
    0.19902E+02    0.45211E+00   -0.59761E-13
    0.22390E+02    0.44429E+00   -0.68012E-12
    0.24878E+02    0.43738E+00   -0.38940E-11
    0.27366E+02    0.43082E+00   -0.19679E-10
    0.29854E+02    0.42370E+00   -0.38228E-10
    0.32341E+02    0.41534E+00   -0.40716E-10
    0.34829E+02    0.40993E+00   -0.81867E-10
    0.37317E+02    0.40716E+00   -0.13949E-09
    0.39805E+02    0.40345E+00   -0.29020E-09
    0.42293E+02    0.39978E+00   -0.59172E-09
    0.44780E+02    0.39401E+00   -0.15225E-08
    0.47268E+02    0.38917E+00   -0.35167E-08
    0.49756E+02    0.38526E+00   -0.44841E-08
    0.52244E+02    0.38169E+00   -0.44041E-08
    0.54732E+02    0.37790E+00   -0.52950E-08
    0.57220E+02    0.37362E+00   -0.72990E-08
    0.59707E+02    0.36916E+00   -0.25273E-07
    0.62195E+02    0.36212E+00   -0.12556E-06
    0.64683E+02    0.35249E+00   -0.67987E-06
    0.67171E+02    0.34513E+00   -0.13533E-05
    0.69659E+02    0.34025E+00   -0.19878E-05
    0.72146E+02    0.33514E+00   -0.67871E-05
    0.74634E+02    0.32898E+00   -0.18630E-04
    0.77122E+02    0.32114E+00   -0.36062E-04
    0.79610E+02    0.31163E+00    0.34099E-04
    0.82098E+02    0.29744E+00    0.20292E-03
    0.84585E+02    0.28883E+00    0.11079E-02
    0.87073E+02    0.27756E+00    0.68639E-02
    0.89561E+02    0.26646E+00    0.18059E-01
    0.92049E+02    0.25219E+00    0.50155E-01
    0.94537E+02    0.23924E+00    0.12308E+00
    0.97024E+02    0.22320E+00    0.18807E+00
    0.99512E+02    0.18975E+00    0.54333E+00
    0.10200E+03    0.16005E+00    0.10000E+01
zone i=     42,T= "1dxhc;t= 0.6000E+03y,z:   1  22"
    0.00000E+00    0.49811E+00   -0.55488E-12
    0.24878E+01    0.49046E+00   -0.10530E-11
    0.49756E+01    0.48192E+00   -0.30933E-11
    0.74634E+01    0.47412E+00   -0.77921E-11
    0.99512E+01    0.46870E+00   -0.14857E-10
    0.12439E+02    0.46385E+00   -0.24925E-10
    0.14927E+02    0.45618E+00   -0.49299E-10
    0.17415E+02    0.43901E+00   -0.13634E-09
    0.19902E+02    0.42269E+00   -0.25937E-09
    0.22390E+02    0.41070E+00   -0.53422E-09
    0.24878E+02    0.40133E+00   -0.79806E-09
    0.27366E+02    0.39234E+00   -0.13419E-08
    0.29854E+02    0.38000E+00   -0.21949E-08
    0.32341E+02    0.37081E+00   -0.32026E-08
    0.34829E+02    0.36283E+00   -0.63266E-08
    0.37317E+02    0.35169E+00   -0.18351E-07
    0.39805E+02    0.33986E+00   -0.60613E-07
    0.42293E+02    0.33309E+00   -0.93862E-07
    0.44780E+02    0.31429E+00   -0.23059E-06
    0.47268E+02    0.29690E+00   -0.40976E-06
    0.49756E+02    0.27748E+00   -0.11096E-05
    0.52244E+02    0.26604E+00   -0.23320E-05
    0.54732E+02    0.26048E+00   -0.37546E-05
    0.57220E+02    0.25271E+00   -0.76499E-05
    0.59707E+02    0.23918E+00   -0.13924E-04
    0.62195E+02    0.22044E+00   -0.21021E-04
    0.64683E+02    0.21028E+00   -0.31923E-04
    0.67171E+02    0.19961E+00   -0.42715E-04
    0.69659E+02    0.19340E+00   -0.53108E-04
    0.72146E+02    0.18949E+00   -0.63149E-04
    0.74634E+02    0.18362E+00   -0.79529E-04
    0.77122E+02    0.17593E+00   -0.95536E-04
    0.79610E+02    0.16992E+00   -0.79095E-04
    0.82098E+02    0.16351E+00   -0.12003E-03
    0.84585E+02    0.15709E+00   -0.16740E-03
    0.87073E+02    0.14925E+00   -0.92170E-04
    0.89561E+02    0.13666E+00   -0.17310E-03
    0.92049E+02    0.12586E+00   -0.17969E-03
    0.94537E+02    0.11257E+00   -0.35729E-03
    0.97024E+02    0.78413E-01   -0.10764E-03
    0.99512E+02    0.27057E-01   -0.49950E-03
    0.10200E+03    0.74876E-02   -0.72124E-03
zone i=     42,T= "1dxhc;t= 0.7500E+03y,z:   1   1"
    0.00000E+00    0.50000E+00    0.00000E+00
    0.24878E+01    0.49616E+00    0.12827E-15
    0.49756E+01    0.49145E+00    0.83990E-15
    0.74634E+01    0.48748E+00    0.28928E-14
    0.99512E+01    0.48072E+00    0.18581E-13
    0.12439E+02    0.47579E+00    0.75743E-13
    0.14927E+02    0.46867E+00    0.29094E-12
    0.17415E+02    0.46425E+00    0.77332E-12
    0.19902E+02    0.45730E+00    0.18843E-11
    0.22390E+02    0.44773E+00    0.33127E-11
    0.24878E+02    0.43277E+00    0.10139E-10
    0.27366E+02    0.42649E+00    0.20378E-10
    0.29854E+02    0.42137E+00    0.52597E-10
    0.32341E+02    0.41854E+00    0.87034E-10
    0.34829E+02    0.41352E+00    0.18467E-09
    0.37317E+02    0.41013E+00    0.46732E-09
    0.39805E+02    0.40408E+00    0.31835E-08
    0.42293E+02    0.40050E+00    0.12034E-07
    0.44780E+02    0.39656E+00    0.29866E-07
    0.47268E+02    0.38936E+00    0.15315E-06
    0.49756E+02    0.38414E+00    0.43043E-06
    0.52244E+02    0.37850E+00    0.25317E-05
    0.54732E+02    0.37477E+00    0.80628E-05
    0.57220E+02    0.37002E+00    0.32554E-04
    0.59707E+02    0.36637E+00    0.10549E-03
    0.62195E+02    0.36172E+00    0.33368E-03
    0.64683E+02    0.35434E+00    0.10676E-02
    0.67171E+02    0.34840E+00    0.32234E-02
    0.69659E+02    0.34355E+00    0.10587E-01
    0.72146E+02    0.34091E+00    0.30805E-01
    0.74634E+02    0.34039E+00    0.27993E-01
    0.77122E+02    0.34374E+00    0.26820E+00
    0.79610E+02    0.35021E+00    0.49832E+00
    0.82098E+02    0.36170E+00    0.60496E+00
    0.84585E+02    0.37490E+00    0.67779E+00
    0.87073E+02    0.38385E+00    0.76373E+00
    0.89561E+02    0.38901E+00    0.85608E+00
    0.92049E+02    0.39321E+00    0.90414E+00
    0.94537E+02    0.39624E+00    0.93564E+00
    0.97024E+02    0.39959E+00    0.95335E+00
    0.99512E+02    0.40492E+00    0.98542E+00
    0.10200E+03    0.40014E+00    0.10000E+01
zone i=     42,T= "1dxhc;t= 0.7500E+03y,z:   1  12"
    0.00000E+00    0.50000E+00    0.00000E+00
    0.24878E+01    0.49711E+00   -0.11464E-15
    0.49756E+01    0.49452E+00   -0.38473E-15
    0.74634E+01    0.48682E+00   -0.13847E-14
    0.99512E+01    0.48101E+00   -0.43299E-14
    0.12439E+02    0.47533E+00   -0.17982E-13
    0.14927E+02    0.47248E+00   -0.30504E-13
    0.17415E+02    0.46483E+00   -0.97672E-13
    0.19902E+02    0.45220E+00   -0.36078E-12
    0.22390E+02    0.44439E+00   -0.34806E-11
    0.24878E+02    0.43749E+00   -0.16738E-10
    0.27366E+02    0.43094E+00   -0.74899E-10
    0.29854E+02    0.42384E+00   -0.14465E-09
    0.32341E+02    0.41550E+00   -0.16210E-09
    0.34829E+02    0.41010E+00   -0.30338E-09
    0.37317E+02    0.40734E+00   -0.48814E-09
    0.39805E+02    0.40363E+00   -0.91386E-09
    0.42293E+02    0.39998E+00   -0.15172E-08
    0.44780E+02    0.39421E+00   -0.41908E-08
    0.47268E+02    0.38939E+00   -0.10823E-07
    0.49756E+02    0.38549E+00   -0.15068E-07
    0.52244E+02    0.38193E+00   -0.15887E-07
    0.54732E+02    0.37815E+00   -0.17852E-07
    0.57220E+02    0.37389E+00   -0.23478E-07
    0.59707E+02    0.36944E+00   -0.68377E-07
    0.62195E+02    0.36240E+00   -0.29237E-06
    0.64683E+02    0.35276E+00   -0.13680E-05
    0.67171E+02    0.34535E+00   -0.24941E-05
    0.69659E+02    0.34039E+00   -0.39855E-05
    0.72146E+02    0.33508E+00   -0.14294E-04
    0.74634E+02    0.32859E+00   -0.34703E-04
    0.77122E+02    0.32033E+00   -0.31298E-04
    0.79610E+02    0.31037E+00    0.13019E-03
    0.82098E+02    0.29571E+00    0.50266E-03
    0.84585E+02    0.28694E+00    0.17713E-02
    0.87073E+02    0.27561E+00    0.86065E-02
    0.89561E+02    0.26456E+00    0.20917E-01
    0.92049E+02    0.25045E+00    0.55018E-01
    0.94537E+02    0.23769E+00    0.12971E+00
    0.97024E+02    0.22194E+00    0.19550E+00
    0.99512E+02    0.18913E+00    0.54678E+00
    0.10200E+03    0.16005E+00    0.10000E+01
zone i=     42,T= "1dxhc;t= 0.7500E+03y,z:   1  22"
    0.00000E+00    0.49811E+00   -0.24348E-11
    0.24878E+01    0.49046E+00   -0.40317E-11
    0.49756E+01    0.48192E+00   -0.11447E-10
    0.74634E+01    0.47411E+00   -0.26588E-10
    0.99512E+01    0.46869E+00   -0.48230E-10
    0.12439E+02    0.46384E+00   -0.79536E-10
    0.14927E+02    0.45617E+00   -0.15393E-09
    0.17415E+02    0.43900E+00   -0.37786E-09
    0.19902E+02    0.42267E+00   -0.66685E-09
    0.22390E+02    0.41068E+00   -0.13007E-08
    0.24878E+02    0.40131E+00   -0.19333E-08
    0.27366E+02    0.39231E+00   -0.32799E-08
    0.29854E+02    0.37998E+00   -0.54315E-08
    0.32341E+02    0.37078E+00   -0.82012E-08
    0.34829E+02    0.36279E+00   -0.16197E-07
    0.37317E+02    0.35165E+00   -0.43631E-07
    0.39805E+02    0.33982E+00   -0.12302E-06
    0.42293E+02    0.33305E+00   -0.17803E-06
    0.44780E+02    0.31424E+00   -0.40410E-06
    0.47268E+02    0.29684E+00   -0.70450E-06
    0.49756E+02    0.27742E+00   -0.17766E-05
    0.52244E+02    0.26597E+00   -0.33359E-05
    0.54732E+02    0.26041E+00   -0.50746E-05
    0.57220E+02    0.25264E+00   -0.98382E-05
    0.59707E+02    0.23910E+00   -0.16458E-04
    0.62195E+02    0.22034E+00   -0.23669E-04
    0.64683E+02    0.21019E+00   -0.34914E-04
    0.67171E+02    0.19951E+00   -0.46409E-04
    0.69659E+02    0.19329E+00   -0.57915E-04
    0.72146E+02    0.18938E+00   -0.69250E-04
    0.74634E+02    0.18350E+00   -0.87126E-04
    0.77122E+02    0.17580E+00   -0.10552E-03
    0.79610E+02    0.16979E+00   -0.92595E-04
    0.82098E+02    0.16338E+00   -0.13592E-03
    0.84585E+02    0.15695E+00   -0.18433E-03
    0.87073E+02    0.14911E+00   -0.11443E-03
    0.89561E+02    0.13653E+00   -0.19914E-03
    0.92049E+02    0.12573E+00   -0.20335E-03
    0.94537E+02    0.11245E+00   -0.37730E-03
    0.97024E+02    0.78311E-01   -0.12966E-03
    0.99512E+02    0.27016E-01   -0.50826E-03
    0.10200E+03    0.74757E-02   -0.73877E-03
zone i=     42,T= "1dxhc;t= 0.9000E+03y,z:   1   1"
    0.00000E+00    0.50000E+00    0.00000E+00
    0.24878E+01    0.49617E+00    0.11795E-14
    0.49756E+01    0.49146E+00    0.70389E-14