          Title="3D head and conc at t=   0.2500E+04 days"
          variables="x","y","z","head","conc"
          zone i=      22, j=      42, k=      42, T="3D"
  0.00000000E+00  0.00000000E+00  0.00000000E+00  0.50000000E+00  0.00000000E+00
  0.00000000E+00  0.00000000E+00  0.97610103E+00  0.50000000E+00  0.00000000E+00
  0.00000000E+00  0.00000000E+00  0.19522021E+01  0.50000000E+00  0.00000000E+00
  0.00000000E+00  0.00000000E+00  0.29283031E+01  0.50000000E+00  0.00000000E+00
  0.00000000E+00  0.00000000E+00  0.39044041E+01  0.50000000E+00  0.00000000E+00
  0.00000000E+00  0.00000000E+00  0.48805052E+01  0.50000000E+00  0.00000000E+00
  0.00000000E+00  0.00000000E+00  0.58566062E+01  0.50000000E+00  0.00000000E+00
  0.00000000E+00  0.00000000E+00  0.68327072E+01  0.50000000E+00  0.00000000E+00
  0.00000000E+00  0.00000000E+00  0.78088083E+01  0.50000000E+00  0.00000000E+00
  0.00000000E+00  0.00000000E+00  0.87849093E+01  0.50000000E+00  0.00000000E+00
  0.00000000E+00  0.00000000E+00  0.97610103E+01  0.50000000E+00  0.00000000E+00
  0.00000000E+00  0.00000000E+00  0.10737111E+02  0.50000000E+00  0.00000000E+00
  0.00000000E+00  0.00000000E+00  0.11713212E+02  0.50000000E+00  0.00000000E+00
  0.00000000E+00  0.00000000E+00  0.12689313E+02  0.50000000E+00  0.00000000E+00
  0.00000000E+00  0.00000000E+00  0.13665414E+02  0.50000000E+00  0.00000000E+00
  0.00000000E+00  0.00000000E+00  0.14641516E+02  0.50000000E+00  0.00000000E+00
  0.00000000E+00  0.00000000E+00  0.15617617E+02  0.50000000E+00  0.00000000E+00
  0.00000000E+00  0.00000000E+00  0.16593718E+02  0.50000000E+00  0.00000000E+00
  0.00000000E+00  0.00000000E+00  0.17569819E+02  0.50000000E+00  0.00000000E+00
  0.00000000E+00  0.00000000E+00  0.18545920E+02  0.50000000E+00  0.00000000E+00
  0.00000000E+00  0.00000000E+00  0.19522021E+02  0.50000000E+00  0.00000000E+00
  0.00000000E+00  0.00000000E+00  0.20498122E+02  0.49811032E+00 -0.15081802E-09
  0.00000000E+00  0.24878049E+01  0.00000000E+00  0.50000000E+00  0.00000000E+00
  0.00000000E+00  0.24878049E+01  0.97609690E+00  0.50000000E+00  0.00000000E+00
  0.00000000E+00  0.24878049E+01  0.19521938E+01  0.50000000E+00  0.00000000E+00
  0.00000000E+00  0.24878049E+01  0.29282907E+01  0.50000000E+00  0.00000000E+00
  0.00000000E+00  0.24878049E+01  0.39043876E+01  0.50000000E+00  0.00000000E+00
  0.00000000E+00  0.24878049E+01  0.48804845E+01  0.50000000E+00  0.00000000E+00
  0.00000000E+00  0.24878049E+01  0.58565814E+01  0.50000000E+00  0.00000000E+00
  0.00000000E+00  0.24878049E+01  0.68326783E+01  0.50000000E+00  0.00000000E+00
  0.00000000E+00  0.24878049E+01  0.78087752E+01  0.50000000E+00  0.00000000E+00
  0.00000000E+00  0.24878049E+01  0.87848721E+01  0.50000000E+00  0.00000000E+00
  0.00000000E+00  0.24878049E+01  0.97609690E+01  0.50000000E+00  0.00000000E+00
  0.00000000E+00  0.24878049E+01  0.10737066E+02  0.50000000E+00  0.00000000E+00
  0.00000000E+00  0.24878049E+01  0.11713163E+02  0.50000000E+00  0.00000000E+00
  0.00000000E+00  0.24878049E+01  0.12689260E+02  0.50000000E+00  0.00000000E+00
  0.00000000E+00  0.24878049E+01  0.13665357E+02  0.50000000E+00  0.00000000E+00
  0.00000000E+00  0.24878049E+01  0.14641454E+02  0.50000000E+00  0.00000000E+00
  0.00000000E+00  0.24878049E+01  0.15617550E+02  0.50000000E+00  0.00000000E+00
  0.00000000E+00  0.24878049E+01  0.16593647E+02  0.50000000E+00  0.00000000E+00
  0.00000000E+00  0.24878049E+01  0.17569744E+02  0.50000000E+00  0.00000000E+00
  0.00000000E+00  0.24878049E+01  0.18545841E+02  0.50000000E+00  0.00000000E+00
  0.00000000E+00  0.24878049E+01  0.19521938E+02  0.50000000E+00  0.00000000E+00
  0.00000000E+00  0.24878049E+01  0.20498035E+02  0.49802364E+00 -0.12423591E-09
  0.00000000E+00  0.49756098E+01  0.00000000E+00  0.50000000E+00  0.00000000E+00
  0.00000000E+00  0.49756098E+01  0.97609651E+00  0.50000000E+00  0.00000000E+00
  0.00000000E+00  0.49756098E+01  0.19521930E+01  0.50000000E+00  0.00000000E+00
  0.00000000E+00  0.49756098E+01  0.29282895E+01  0.50000000E+00  0.00000000E+00
  0.00000000E+00  0.49756098E+01  0.39043860E+01  0.50000000E+00  0.00000000E+00
  0.00000000E+00  0.49756098E+01  0.48804826E+01  0.50000000E+00  0.00000000E+00
  0.00000000E+00  0.49756098E+01  0.58565791E+01  0.50000000E+00  0.00000000E+00
  0.00000000E+00  0.49756098E+01  0.68326756E+01  0.50000000E+00  0.00000000E+00
  0.00000000E+00  0.49756098E+01  0.78087721E+01  0.50000000E+00  0.00000000E+00
  0.00000000E+00  0.49756098E+01  0.87848686E+01  0.50000000E+00  0.00000000E+00
  0.00000000E+00  0.49756098E+01  0.97609651E+01  0.50000000E+00  0.00000000E+00
  0.00000000E+00  0.49756098E+01  0.10737062E+02  0.50000000E+00  0.00000000E+00
  0.00000000E+00  0.49756098E+01  0.11713158E+02  0.50000000E+00  0.00000000E+00
  0.00000000E+00  0.49756098E+01  0.12689255E+02  0.50000000E+00  0.00000000E+00
  0.00000000E+00  0.49756098E+01  0.13665351E+02  0.50000000E+00  0.00000000E+00
  0.00000000E+00  0.49756098E+01  0.14641448E+02  0.50000000E+00  0.00000000E+00
  0.00000000E+00  0.49756098E+01  0.15617544E+02  0.50000000E+00  0.00000000E+00
  0.00000000E+00  0.49756098E+01  0.16593641E+02  0.50000000E+00  0.00000000E+00
  0.00000000E+00  0.49756098E+01  0.17569737E+02  0.50000000E+00  0.00000000E+00
  0.00000000E+00  0.49756098E+01  0.18545834E+02  0.50000000E+00  0.00000000E+00
  0.00000000E+00  0.49756098E+01  0.19521930E+02  0.50000000E+00  0.00000000E+00
  0.00000000E+00  0.49756098E+01  0.20498027E+02  0.49801561E+00 -0.10496843E-09
  0.00000000E+00  0.74634146E+01  0.00000000E+00  0.50000000E+00  0.00000000E+00
  0.00000000E+00  0.74634146E+01  0.97608893E+00  0.50000000E+00  0.00000000E+00
  0.00000000E+00  0.74634146E+01  0.19521779E+01  0.50000000E+00  0.00000000E+00
  0.00000000E+00  0.74634146E+01  0.29282668E+01  0.50000000E+00  0.00000000E+00
  0.00000000E+00  0.74634146E+01  0.39043557E+01  0.50000000E+00  0.00000000E+00
  0.00000000E+00  0.74634146E+01  0.48804447E+01  0.50000000E+00  0.00000000E+00
  0.00000000E+00  0.74634146E+01  0.58565336E+01  0.50000000E+00  0.00000000E+00
  0.00000000E+00  0.74634146E+01  0.68326225E+01  0.50000000E+00  0.00000000E+00
  0.00000000E+00  0.74634146E+01  0.78087115E+01  0.50000000E+00  0.00000000E+00
  0.00000000E+00  0.74634146E+01  0.87848004E+01  0.50000000E+00  0.00000000E+00
  0.00000000E+00  0.74634146E+01  0.97608893E+01  0.50000000E+00  0.00000000E+00
  0.00000000E+00  0.74634146E+01  0.10736978E+02  0.50000000E+00  0.00000000E+00
  0.00000000E+00  0.74634146E+01  0.11713067E+02  0.50000000E+00  0.00000000E+00
  0.00000000E+00  0.74634146E+01  0.12689156E+02  0.50000000E+00  0.00000000E+00
  0.00000000E+00  0.74634146E+01  0.13665245E+02  0.50000000E+00  0.00000000E+00
  0.00000000E+00  0.74634146E+01  0.14641334E+02  0.50000000E+00  0.00000000E+00
  0.00000000E+00  0.74634146E+01  0.15617423E+02  0.50000000E+00  0.00000000E+00
  0.00000000E+00  0.74634146E+01  0.16593512E+02  0.50000000E+00  0.00000000E+00
  0.00000000E+00  0.74634146E+01  0.17569601E+02  0.50000000E+00  0.00000000E+00
  0.00000000E+00  0.74634146E+01  0.18545690E+02  0.50000000E+00  0.00000000E+00
  0.00000000E+00  0.74634146E+01  0.19521779E+02  0.50000000E+00  0.00000000E+00
  0.00000000E+00  0.74634146E+01  0.20497868E+02  0.49785627E+00 -0.91298113E-10
  0.00000000E+00  0.99512195E+01  0.00000000E+00  0.50000000E+00  0.00000000E+00
  0.00000000E+00  0.99512195E+01  0.97608712E+00  0.50000000E+00  0.00000000E+00
  0.00000000E+00  0.99512195E+01  0.19521742E+01  0.50000000E+00  0.00000000E+00
  0.00000000E+00  0.99512195E+01  0.29282614E+01  0.50000000E+00  0.00000000E+00
  0.00000000E+00  0.99512195E+01  0.39043485E+01  0.50000000E+00  0.00000000E+00
  0.00000000E+00  0.99512195E+01  0.48804356E+01  0.50000000E+00  0.00000000E+00
  0.00000000E+00  0.99512195E+01  0.58565227E+01  0.50000000E+00  0.00000000E+00
  0.00000000E+00  0.99512195E+01  0.68326099E+01  0.50000000E+00  0.00000000E+00
  0.00000000E+00  0.99512195E+01  0.78086970E+01  0.50000000E+00  0.00000000E+00
  0.00000000E+00  0.99512195E+01  0.87847841E+01  0.50000000E+00  0.00000000E+00
  0.00000000E+00  0.99512195E+01  0.97608712E+01  0.50000000E+00  0.00000000E+00
  0.00000000E+00  0.99512195E+01  0.10736958E+02  0.50000000E+00  0.00000000E+00
  0.00000000E+00  0.99512195E+01  0.11713045E+02  0.50000000E+00  0.00000000E+00
  0.00000000E+00  0.99512195E+01  0.12689133E+02  0.50000000E+00  0.00000000E+00
  0.00000000E+00  0.99512195E+01  0.13665220E+02  0.50000000E+00  0.00000000E+00
  0.00000000E+00  0.99512195E+01  0.14641307E+02  0.50000000E+00  0.00000000E+00
  0.00000000E+00  0.99512195E+01  0.15617394E+02  0.50000000E+00  0.00000000E+00
  0.00000000E+00  0.99512195E+01  0.16593481E+02  0.50000000E+00  0.00000000E+00
  0.00000000E+00  0.99512195E+01  0.17569568E+02  0.50000000E+00  0.00000000E+00
  0.00000000E+00  0.99512195E+01  0.18545655E+02  0.50000000E+00  0.00000000E+00
  0.00000000E+00  0.99512195E+01  0.19521742E+02  0.50000000E+00  0.00000000E+00
  0.00000000E+00  0.99512195E+01  0.20497830E+02  0.49781800E+00 -0.80973727E-10
  0.00000000E+00  0.12439024E+02  0.00000000E+00  0.50000000E+00  0.00000000E+00
  0.00000000E+00  0.12439024E+02  0.97609875E+00  0.50000000E+00  0.00000000E+00
  0.00000000E+00  0.12439024E+02  0.19521975E+01  0.50000000E+00  0.00000000E+00
  0.00000000E+00  0.12439024E+02  0.29282963E+01  0.50000000E+00  0.00000000E+00
  0.00000000E+00  0.12439024E+02  0.39043950E+01  0.50000000E+00  0.00000000E+00
  0.00000000E+00  0.12439024E+02  0.48804938E+01  0.50000000E+00  0.00000000E+00
  0.00000000E+00  0.12439024E+02  0.58565925E+01  0.50000000E+00  0.00000000E+00
  0.00000000E+00  0.12439024E+02  0.68326913E+01  0.50000000E+00  0.00000000E+00
  0.00000000E+00  0.12439024E+02  0.78087900E+01  0.50000000E+00  0.00000000E+00
  0.00000000E+00  0.12439024E+02  0.87848888E+01  0.50000000E+00  0.00000000E+00
  0.00000000E+00  0.12439024E+02  0.97609875E+01  0.50000000E+00  0.00000000E+00
  0.00000000E+00  0.12439024E+02  0.10737086E+02  0.50000000E+00  0.00000000E+00
  0.00000000E+00  0.12439024E+02  0.11713185E+02  0.50000000E+00  0.00000000E+00
  0.00000000E+00  0.12439024E+02  0.12689284E+02  0.50000000E+00  0.00000000E+00
  0.00000000E+00  0.12439024E+02  0.13665383E+02  0.50000000E+00  0.00000000E+00
  0.00000000E+00  0.12439024E+02  0.14641481E+02  0.50000000E+00  0.00000000E+00
  0.00000000E+00  0.12439024E+02  0.15617580E+02  0.50000000E+00  0.00000000E+00
  0.00000000E+00  0.12439024E+02  0.16593679E+02  0.50000000E+00  0.00000000E+00
  0.00000000E+00  0.12439024E+02  0.17569778E+02  0.50000000E+00  0.00000000E+00
  0.00000000E+00  0.12439024E+02  0.18545876E+02  0.50000000E+00  0.00000000E+00
  0.00000000E+00  0.12439024E+02  0.19521975E+02  0.50000000E+00  0.00000000E+00
  0.00000000E+00  0.12439024E+02  0.20498074E+02  0.49806277E+00 -0.13837121E-10
  0.00000000E+00  0.14926829E+02  0.00000000E+00  0.50000000E+00  0.00000000E+00
  0.00000000E+00  0.14926829E+02  0.97609776E+00  0.50000000E+00  0.00000000E+00
  0.00000000E+00  0.14926829E+02  0.19521955E+01  0.50000000E+00  0.00000000E+00
  0.00000000E+00  0.14926829E+02  0.29282933E+01  0.50000000E+00  0.00000000E+00
  0.00000000E+00  0.14926829E+02  0.39043910E+01  0.50000000E+00  0.00000000E+00
  0.00000000E+00  0.14926829E+02  0.48804888E+01  0.50000000E+00  0.00000000E+00
  0.00000000E+00  0.14926829E+02  0.58565866E+01  0.50000000E+00  0.00000000E+00
  0.00000000E+00  0.14926829E+02  0.68326843E+01  0.50000000E+00  0.00000000E+00
  0.00000000E+00  0.14926829E+02  0.78087821E+01  0.50000000E+00  0.00000000E+00
  0.00000000E+00  0.14926829E+02  0.87848798E+01  0.50000000E+00  0.00000000E+00
  0.00000000E+00  0.14926829E+02  0.97609776E+01  0.50000000E+00  0.00000000E+00
  0.00000000E+00  0.14926829E+02  0.10737075E+02  0.50000000E+00  0.00000000E+00
  0.00000000E+00  0.14926829E+02  0.11713173E+02  0.50000000E+00  0.00000000E+00
  0.00000000E+00  0.14926829E+02  0.12689271E+02  0.50000000E+00  0.00000000E+00
  0.00000000E+00  0.14926829E+02  0.13665369E+02  0.50000000E+00  0.00000000E+00
  0.00000000E+00  0.14926829E+02  0.14641466E+02  0.50000000E+00  0.00000000E+00
  0.00000000E+00  0.14926829E+02  0.15617564E+02  0.50000000E+00  0.00000000E+00
  0.00000000E+00  0.14926829E+02  0.16593662E+02  0.50000000E+00  0.00000000E+00
  0.00000000E+00  0.14926829E+02  0.17569760E+02  0.50000000E+00  0.00000000E+00
  0.00000000E+00  0.14926829E+02  0.18545857E+02  0.50000000E+00  0.00000000E+00
  0.00000000E+00  0.14926829E+02  0.19521955E+02  0.50000000E+00  0.00000000E+00
  0.00000000E+00  0.14926829E+02  0.20498053E+02  0.49804186E+00  0.46194218E-10
  0.00000000E+00  0.17414634E+02  0.00000000E+00  0.50000000E+00  0.00000000E+00
  0.00000000E+00  0.17414634E+02  0.97609145E+00  0.50000000E+00  0.00000000E+00
  0.00000000E+00  0.17414634E+02  0.19521829E+01  0.50000000E+00  0.00000000E+00
  0.00000000E+00  0.17414634E+02  0.29282744E+01  0.50000000E+00  0.00000000E+00
  0.00000000E+00  0.17414634E+02  0.39043658E+01  0.50000000E+00  0.00000000E+00
  0.00000000E+00  0.17414634E+02  0.48804573E+01  0.50000000E+00  0.00000000E+00
  0.00000000E+00  0.17414634E+02  0.58565487E+01  0.50000000E+00  0.00000000E+00
  0.00000000E+00  0.17414634E+02  0.68326402E+01  0.50000000E+00  0.00000000E+00
  0.00000000E+00  0.17414634E+02  0.78087316E+01  0.50000000E+00  0.00000000E+00
  0.00000000E+00  0.17414634E+02  0.87848231E+01  0.50000000E+00  0.00000000E+00
  0.00000000E+00  0.17414634E+02  0.97609145E+01  0.50000000E+00  0.00000000E+00
  0.00000000E+00  0.17414634E+02  0.10737006E+02  0.50000000E+00  0.00000000E+00
  0.00000000E+00  0.17414634E+02  0.11713097E+02  0.50000000E+00  0.00000000E+00
  0.00000000E+00  0.17414634E+02  0.12689189E+02  0.50000000E+00  0.00000000E+00
  0.00000000E+00  0.17414634E+02  0.13665280E+02  0.50000000E+00  0.00000000E+00
  0.00000000E+00  0.17414634E+02  0.14641372E+02  0.50000000E+00  0.00000000E+00
  0.00000000E+00  0.17414634E+02  0.15617463E+02  0.50000000E+00  0.00000000E+00
  0.00000000E+00  0.17414634E+02  0.16593555E+02  0.50000000E+00  0.00000000E+00
  0.00000000E+00  0.17414634E+02  0.17569646E+02  0.50000000E+00  0.00000000E+00
  0.00000000E+00  0.17414634E+02  0.18545738E+02  0.50000000E+00  0.00000000E+00
  0.00000000E+00  0.17414634E+02  0.19521829E+02  0.50000000E+00  0.00000000E+00
  0.00000000E+00  0.17414634E+02  0.20497920E+02  0.49790889E+00  0.78883671E-10
  0.00000000E+00  0.19902439E+02  0.00000000E+00  0.50000000E+00  0.00000000E+00
  0.00000000E+00  0.19902439E+02  0.97610748E+00  0.50000000E+00  0.00000000E+00
  0.00000000E+00  0.19902439E+02  0.19522150E+01  0.50000000E+00  0.00000000E+00
  0.00000000E+00  0.19902439E+02  0.29283224E+01  0.50000000E+00  0.00000000E+00
  0.00000000E+00  0.19902439E+02  0.39044299E+01  0.50000000E+00  0.00000000E+00
  0.00000000E+00  0.19902439E+02  0.48805374E+01  0.50000000E+00  0.00000000E+00
  0.00000000E+00  0.19902439E+02  0.58566449E+01  0.50000000E+00  0.00000000E+00
  0.00000000E+00  0.19902439E+02  0.68327524E+01  0.50000000E+00  0.00000000E+00
  0.00000000E+00  0.19902439E+02  0.78088599E+01  0.50000000E+00  0.00000000E+00
  0.00000000E+00  0.19902439E+02  0.87849673E+01  0.50000000E+00  0.00000000E+00
  0.00000000E+00  0.19902439E+02  0.97610748E+01  0.50000000E+00  0.00000000E+00
  0.00000000E+00  0.19902439E+02  0.10737182E+02  0.50000000E+00  0.00000000E+00
  0.00000000E+00  0.19902439E+02  0.11713290E+02  0.50000000E+00  0.00000000E+00
  0.00000000E+00  0.19902439E+02  0.12689397E+02  0.50000000E+00  0.00000000E+00
  0.00000000E+00  0.19902439E+02  0.13665505E+02  0.50000000E+00  0.00000000E+00
  0.00000000E+00  0.19902439E+02  0.14641612E+02  0.50000000E+00  0.00000000E+00
  0.00000000E+00  0.19902439E+02  0.15617720E+02  0.50000000E+00  0.00000000E+00
  0.00000000E+00  0.19902439E+02  0.16593827E+02  0.50000000E+00  0.00000000E+00
  0.00000000E+00  0.19902439E+02  0.17569935E+02  0.50000000E+00  0.00000000E+00
  0.00000000E+00  0.19902439E+02  0.18546042E+02  0.50000000E+00  0.00000000E+00
  0.00000000E+00  0.19902439E+02  0.19522150E+02  0.50000000E+00  0.00000000E+00
  0.00000000E+00  0.19902439E+02  0.20498257E+02  0.49824725E+00  0.10311550E-09
  0.00000000E+00  0.22390244E+02  0.00000000E+00  0.50000000E+00  0.00000000E+00
  0.00000000E+00  0.22390244E+02  0.97610487E+00  0.50000000E+00  0.00000000E+00
  0.00000000E+00  0.22390244E+02  0.19522097E+01  0.50000000E+00  0.00000000E+00
  0.00000000E+00  0.22390244E+02  0.29283146E+01  0.50000000E+00  0.00000000E+00
  0.00000000E+00  0.22390244E+02  0.39044195E+01  0.50000000E+00  0.00000000E+00
  0.00000000E+00  0.22390244E+02  0.48805244E+01  0.50000000E+00  0.00000000E+00
  0.00000000E+00  0.22390244E+02  0.58566292E+01  0.50000000E+00  0.00000000E+00
  0.00000000E+00  0.22390244E+02  0.68327341E+01  0.50000000E+00  0.00000000E+00
  0.00000000E+00  0.22390244E+02  0.78088390E+01  0.50000000E+00  0.00000000E+00
  0.00000000E+00  0.22390244E+02  0.87849439E+01  0.50000000E+00  0.00000000E+00
  0.00000000E+00  0.22390244E+02  0.97610487E+01  0.50000000E+00  0.00000000E+00
  0.00000000E+00  0.22390244E+02  0.10737154E+02  0.50000000E+00  0.00000000E+00
  0.00000000E+00  0.22390244E+02  0.11713258E+02  0.50000000E+00  0.00000000E+00
  0.00000000E+00  0.22390244E+02  0.12689363E+02  0.50000000E+00  0.00000000E+00
  0.00000000E+00  0.22390244E+02  0.13665468E+02  0.50000000E+00  0.00000000E+00
  0.00000000E+00  0.22390244E+02  0.14641573E+02  0.50000000E+00  0.00000000E+00
  0.00000000E+00  0.22390244E+02  0.15617678E+02  0.50000000E+00  0.00000000E+00
  0.00000000E+00  0.22390244E+02  0.16593783E+02  0.50000000E+00  0.00000000E+00
  0.00000000E+00  0.22390244E+02  0.17569888E+02  0.50000000E+00  0.00000000E+00
  0.00000000E+00  0.22390244E+02  0.18545993E+02  0.50000000E+00  0.00000000E+00
  0.00000000E+00  0.22390244E+02  0.19522097E+02  0.50000000E+00  0.00000000E+00
  0.00000000E+00  0.22390244E+02  0.20498202E+02  0.49819260E+00  0.12794413E-09
  0.00000000E+00  0.24878049E+02  0.00000000E+00  0.50000000E+00  0.00000000E+00
  0.00000000E+00  0.24878049E+02  0.97609671E+00  0.50000000E+00  0.00000000E+00
  0.00000000E+00  0.24878049E+02  0.19521934E+01  0.50000000E+00  0.00000000E+00
  0.00000000E+00  0.24878049E+02  0.29282901E+01  0.50000000E+00  0.00000000E+00
  0.00000000E+00  0.24878049E+02  0.39043868E+01  0.50000000E+00  0.00000000E+00
  0.00000000E+00  0.24878049E+02  0.48804835E+01  0.50000000E+00  0.00000000E+00
  0.00000000E+00  0.24878049E+02  0.58565803E+01  0.50000000E+00  0.00000000E+00
  0.00000000E+00  0.24878049E+02  0.68326770E+01  0.50000000E+00  0.00000000E+00
  0.00000000E+00  0.24878049E+02  0.78087737E+01  0.50000000E+00  0.00000000E+00
  0.00000000E+00  0.24878049E+02  0.87848704E+01  0.50000000E+00  0.00000000E+00
  0.00000000E+00  0.24878049E+02  0.97609671E+01  0.50000000E+00  0.00000000E+00
  0.00000000E+00  0.24878049E+02  0.10737064E+02  0.50000000E+00  0.00000000E+00
  0.00000000E+00  0.24878049E+02  0.11713161E+02  0.50000000E+00  0.00000000E+00
  0.00000000E+00  0.24878049E+02  0.12689257E+02  0.50000000E+00  0.00000000E+00
  0.00000000E+00  0.24878049E+02  0.13665354E+02  0.50000000E+00  0.00000000E+00
  0.00000000E+00  0.24878049E+02  0.14641451E+02  0.50000000E+00  0.00000000E+00
  0.00000000E+00  0.24878049E+02  0.15617547E+02  0.50000000E+00  0.00000000E+00
  0.00000000E+00  0.24878049E+02  0.16593644E+02  0.50000000E+00  0.00000000E+00
  0.00000000E+00  0.24878049E+02  0.17569741E+02  0.50000000E+00  0.00000000E+00
  0.00000000E+00  0.24878049E+02  0.18545837E+02  0.50000000E+00  0.00000000E+00
  0.00000000E+00  0.24878049E+02  0.19521934E+02  0.50000000E+00  0.00000000E+00
  0.00000000E+00  0.24878049E+02  0.20498031E+02  0.49802068E+00  0.16411241E-09
  0.00000000E+00  0.27365854E+02  0.00000000E+00  0.50000000E+00  0.00000000E+00
  0.00000000E+00  0.27365854E+02  0.97609515E+00  0.50000000E+00  0.00000000E+00
  0.00000000E+00  0.27365854E+02  0.19521903E+01  0.50000000E+00  0.00000000E+00
  0.00000000E+00  0.27365854E+02  0.29282855E+01  0.50000000E+00  0.00000000E+00
  0.00000000E+00  0.27365854E+02  0.39043806E+01  0.50000000E+00  0.00000000E+00
  0.00000000E+00  0.27365854E+02  0.48804758E+01  0.50000000E+00  0.00000000E+00
  0.00000000E+00  0.27365854E+02  0.58565709E+01  0.50000000E+00  0.00000000E+00
  0.00000000E+00  0.27365854E+02  0.68326661E+01  0.50000000E+00  0.00000000E+00
  0.00000000E+00  0.27365854E+02  0.78087612E+01  0.50000000E+00  0.00000000E+00
  0.00000000E+00  0.27365854E+02  0.87848564E+01  0.50000000E+00  0.00000000E+00
  0.00000000E+00  0.27365854E+02  0.97609515E+01  0.50000000E+00  0.00000000E+00
  0.00000000E+00  0.27365854E+02  0.10737047E+02  0.50000000E+00  0.00000000E+00
  0.00000000E+00  0.27365854E+02  0.11713142E+02  0.50000000E+00  0.00000000E+00
  0.00000000E+00  0.27365854E+02  0.12689237E+02  0.50000000E+00  0.00000000E+00
  0.00000000E+00  0.27365854E+02  0.13665332E+02  0.50000000E+00  0.00000000E+00
  0.00000000E+00  0.27365854E+02  0.14641427E+02  0.50000000E+00  0.00000000E+00
  0.00000000E+00  0.27365854E+02  0.15617522E+02  0.50000000E+00  0.00000000E+00
  0.00000000E+00  0.27365854E+02  0.16593618E+02  0.50000000E+00  0.00000000E+00
  0.00000000E+00  0.27365854E+02  0.17569713E+02  0.50000000E+00  0.00000000E+00
  0.00000000E+00  0.27365854E+02  0.18545808E+02  0.50000000E+00  0.00000000E+00
  0.00000000E+00  0.27365854E+02  0.19521903E+02  0.50000000E+00  0.00000000E+00
  0.00000000E+00  0.27365854E+02  0.20497998E+02  0.49798804E+00  0.32281737E-09
  0.00000000E+00  0.29853659E+02  0.00000000E+00  0.50000000E+00  0.00000000E+00
  0.00000000E+00  0.29853659E+02  0.97608431E+00  0.50000000E+00  0.00000000E+00
  0.00000000E+00  0.29853659E+02  0.19521686E+01  0.50000000E+00  0.00000000E+00
  0.00000000E+00  0.29853659E+02  0.29282529E+01  0.50000000E+00  0.00000000E+00
  0.00000000E+00  0.29853659E+02  0.39043372E+01  0.50000000E+00  0.00000000E+00
  0.00000000E+00  0.29853659E+02  0.48804216E+01  0.50000000E+00  0.00000000E+00
  0.00000000E+00  0.29853659E+02  0.58565059E+01  0.50000000E+00  0.00000000E+00
  0.00000000E+00  0.29853659E+02  0.68325902E+01  0.50000000E+00  0.00000000E+00
  0.00000000E+00  0.29853659E+02  0.78086745E+01  0.50000000E+00  0.00000000E+00
  0.00000000E+00  0.29853659E+02  0.87847588E+01  0.50000000E+00  0.00000000E+00
  0.00000000E+00  0.29853659E+02  0.97608431E+01  0.50000000E+00  0.00000000E+00
  0.00000000E+00  0.29853659E+02  0.10736927E+02  0.50000000E+00  0.00000000E+00
  0.00000000E+00  0.29853659E+02  0.11713012E+02  0.50000000E+00  0.00000000E+00
  0.00000000E+00  0.29853659E+02  0.12689096E+02  0.50000000E+00  0.00000000E+00
  0.00000000E+00  0.29853659E+02  0.13665180E+02  0.50000000E+00  0.00000000E+00
  0.00000000E+00  0.29853659E+02  0.14641265E+02  0.50000000E+00  0.00000000E+00
  0.00000000E+00  0.29853659E+02  0.15617349E+02  0.50000000E+00  0.00000000E+00
  0.00000000E+00  0.29853659E+02  0.16593433E+02  0.50000000E+00  0.00000000E+00
  0.00000000E+00  0.29853659E+02  0.17569518E+02  0.50000000E+00  0.00000000E+00
  0.00000000E+00  0.29853659E+02  0.18545602E+02  0.50000000E+00  0.00000000E+00
  0.00000000E+00  0.29853659E+02  0.19521686E+02  0.50000000E+00  0.00000000E+00
  0.00000000E+00  0.29853659E+02  0.20497771E+02  0.49775925E+00  0.50606725E-09
  0.00000000E+00  0.32341463E+02  0.00000000E+00  0.50000000E+00  0.00000000E+00
  0.00000000E+00  0.32341463E+02  0.97610046E+00  0.50000000E+00  0.00000000E+00
  0.00000000E+00  0.32341463E+02  0.19522009E+01  0.50000000E+00  0.00000000E+00
  0.00000000E+00  0.32341463E+02  0.29283014E+01  0.50000000E+00  0.00000000E+00
  0.00000000E+00  0.32341463E+02  0.39044018E+01  0.50000000E+00  0.00000000E+00
  0.00000000E+00  0.32341463E+02  0.48805023E+01  0.50000000E+00  0.00000000E+00
  0.00000000E+00  0.32341463E+02  0.58566028E+01  0.50000000E+00  0.00000000E+00
  0.00000000E+00  0.32341463E+02  0.68327032E+01  0.50000000E+00  0.00000000E+00
  0.00000000E+00  0.32341463E+02  0.78088037E+01  0.50000000E+00  0.00000000E+00
  0.00000000E+00  0.32341463E+02  0.87849042E+01  0.50000000E+00  0.00000000E+00
  0.00000000E+00  0.32341463E+02  0.97610046E+01  0.50000000E+00  0.00000000E+00
  0.00000000E+00  0.32341463E+02  0.10737105E+02  0.50000000E+00  0.00000000E+00
  0.00000000E+00  0.32341463E+02  0.11713206E+02  0.50000000E+00  0.00000000E+00
  0.00000000E+00  0.32341463E+02  0.12689306E+02  0.50000000E+00  0.00000000E+00
  0.00000000E+00  0.32341463E+02  0.13665406E+02  0.50000000E+00  0.00000000E+00
  0.00000000E+00  0.32341463E+02  0.14641507E+02  0.50000000E+00  0.00000000E+00
  0.00000000E+00  0.32341463E+02  0.15617607E+02  0.50000000E+00  0.00000000E+00
  0.00000000E+00  0.32341463E+02  0.16593708E+02  0.50000000E+00  0.00000000E+00
  0.00000000E+00  0.32341463E+02  0.17569808E+02  0.50000000E+00  0.00000000E+00
  0.00000000E+00  0.32341463E+02  0.18545909E+02  0.50000000E+00  0.00000000E+00
  0.00000000E+00  0.32341463E+02  0.19522009E+02  0.50000000E+00  0.00000000E+00
  0.00000000E+00  0.32341463E+02  0.20498110E+02  0.49809976E+00  0.58519389E-09
  0.00000000E+00  0.34829268E+02  0.00000000E+00  0.50000000E+00  0.00000000E+00
  0.00000000E+00  0.34829268E+02  0.97610995E+00  0.50000000E+00  0.00000000E+00
  0.00000000E+00  0.34829268E+02  0.19522199E+01  0.50000000E+00  0.00000000E+00
  0.00000000E+00  0.34829268E+02  0.29283298E+01  0.50000000E+00  0.00000000E+00
  0.00000000E+00  0.34829268E+02  0.39044398E+01  0.50000000E+00  0.00000000E+00
  0.00000000E+00  0.34829268E+02  0.48805497E+01  0.50000000E+00  0.00000000E+00
  0.00000000E+00  0.34829268E+02  0.58566597E+01  0.50000000E+00  0.00000000E+00
  0.00000000E+00  0.34829268E+02  0.68327696E+01  0.50000000E+00  0.00000000E+00
  0.00000000E+00  0.34829268E+02  0.78088796E+01  0.50000000E+00  0.00000000E+00
  0.00000000E+00  0.34829268E+02  0.87849895E+01  0.50000000E+00  0.00000000E+00
  0.00000000E+00  0.34829268E+02  0.97610995E+01  0.50000000E+00  0.00000000E+00
  0.00000000E+00  0.34829268E+02  0.10737209E+02  0.50000000E+00  0.00000000E+00
  0.00000000E+00  0.34829268E+02  0.11713319E+02  0.50000000E+00  0.00000000E+00
  0.00000000E+00  0.34829268E+02  0.12689429E+02  0.50000000E+00  0.00000000E+00
  0.00000000E+00  0.34829268E+02  0.13665539E+02  0.50000000E+00  0.00000000E+00
  0.00000000E+00  0.34829268E+02  0.14641649E+02  0.50000000E+00  0.00000000E+00
  0.00000000E+00  0.34829268E+02  0.15617759E+02  0.50000000E+00  0.00000000E+00
  0.00000000E+00  0.34829268E+02  0.16593869E+02  0.50000000E+00  0.00000000E+00
  0.00000000E+00  0.34829268E+02  0.17569979E+02  0.50000000E+00  0.00000000E+00
  0.00000000E+00  0.34829268E+02  0.18546089E+02  0.50000000E+00  0.00000000E+00
  0.00000000E+00  0.34829268E+02  0.19522199E+02  0.50000000E+00  0.00000000E+00
  0.00000000E+00  0.34829268E+02  0.20498309E+02  0.49829984E+00  0.69490698E-09
  0.00000000E+00  0.37317073E+02  0.00000000E+00  0.50000000E+00  0.00000000E+00
  0.00000000E+00  0.37317073E+02  0.97611324E+00  0.50000000E+00  0.00000000E+00
  0.00000000E+00  0.37317073E+02  0.19522265E+01  0.50000000E+00  0.00000000E+00
  0.00000000E+00  0.37317073E+02  0.29283397E+01  0.50000000E+00  0.00000000E+00
  0.00000000E+00  0.37317073E+02  0.39044530E+01  0.50000000E+00  0.00000000E+00
  0.00000000E+00  0.37317073E+02  0.48805662E+01  0.50000000E+00  0.00000000E+00
  0.00000000E+00  0.37317073E+02  0.58566794E+01  0.50000000E+00  0.00000000E+00
  0.00000000E+00  0.37317073E+02  0.68327927E+01  0.50000000E+00  0.00000000E+00
  0.00000000E+00  0.37317073E+02  0.78089059E+01  0.50000000E+00  0.00000000E+00
  0.00000000E+00  0.37317073E+02  0.87850192E+01  0.50000000E+00  0.00000000E+00
  0.00000000E+00  0.37317073E+02  0.97611324E+01  0.50000000E+00  0.00000000E+00
  0.00000000E+00  0.37317073E+02  0.10737246E+02  0.50000000E+00  0.00000000E+00
  0.00000000E+00  0.37317073E+02  0.11713359E+02  0.50000000E+00  0.00000000E+00
  0.00000000E+00  0.37317073E+02  0.12689472E+02  0.50000000E+00  0.00000000E+00
  0.00000000E+00  0.37317073E+02  0.13665585E+02  0.50000000E+00  0.00000000E+00
  0.00000000E+00  0.37317073E+02  0.14641699E+02  0.50000000E+00  0.00000000E+00
  0.00000000E+00  0.37317073E+02  0.15617812E+02  0.50000000E+00  0.00000000E+00
  0.00000000E+00  0.37317073E+02  0.16593925E+02  0.50000000E+00  0.00000000E+00
  0.00000000E+00  0.37317073E+02  0.17570038E+02  0.50000000E+00  0.00000000E+00
  0.00000000E+00  0.37317073E+02  0.18546152E+02  0.50000000E+00  0.00000000E+00
  0.00000000E+00  0.37317073E+02  0.19522265E+02  0.50000000E+00  0.00000000E+00
  0.00000000E+00  0.37317073E+02  0.20498378E+02  0.49836924E+00  0.75777814E-09
  0.00000000E+00  0.39804878E+02  0.00000000E+00  0.50000000E+00  0.00000000E+00
  0.00000000E+00  0.39804878E+02  0.97610078E+00  0.50000000E+00  0.00000000E+00
  0.00000000E+00  0.39804878E+02  0.19522016E+01  0.50000000E+00  0.00000000E+00
  0.00000000E+00  0.39804878E+02  0.29283023E+01  0.50000000E+00  0.00000000E+00
  0.00000000E+00  0.39804878E+02  0.39044031E+01  0.50000000E+00  0.00000000E+00
  0.00000000E+00  0.39804878E+02  0.48805039E+01  0.50000000E+00  0.00000000E+00
  0.00000000E+00  0.39804878E+02  0.58566047E+01  0.50000000E+00  0.00000000E+00
  0.00000000E+00  0.39804878E+02  0.68327054E+01  0.50000000E+00  0.00000000E+00
  0.00000000E+00  0.39804878E+02  0.78088062E+01  0.50000000E+00  0.00000000E+00
  0.00000000E+00  0.39804878E+02  0.87849070E+01  0.50000000E+00  0.00000000E+00
  0.00000000E+00  0.39804878E+02  0.97610078E+01  0.50000000E+00  0.00000000E+00
  0.00000000E+00  0.39804878E+02  0.10737109E+02  0.50000000E+00  0.00000000E+00
  0.00000000E+00  0.39804878E+02  0.11713209E+02  0.50000000E+00  0.00000000E+00
  0.00000000E+00  0.39804878E+02  0.12689310E+02  0.50000000E+00  0.00000000E+00
  0.00000000E+00  0.39804878E+02  0.13665411E+02  0.50000000E+00  0.00000000E+00
  0.00000000E+00  0.39804878E+02  0.14641512E+02  0.50000000E+00  0.00000000E+00