title="2d K section "
variables="x","z","Kx","logKx","Kz","logKz","porosity"
zone i=    22, j=    42,T="Initial K at t=0"
   0.0000000E+00   0.0000000E+00   0.1812715E-04  -0.4741671E+01   0.1812715E-04  -0.4741671E+01   0.3000000E+00
   0.0000000E+00   0.9761905E+00   0.2145184E-04  -0.4668535E+01   0.2145184E-04  -0.4668535E+01   0.3000000E+00
   0.0000000E+00   0.1952381E+01   0.3952015E-04  -0.4403181E+01   0.3952015E-04  -0.4403181E+01   0.3000000E+00
   0.0000000E+00   0.2928571E+01   0.3148183E-04  -0.4501940E+01   0.3148183E-04  -0.4501940E+01   0.3000000E+00
   0.0000000E+00   0.3904762E+01   0.3016284E-04  -0.4520528E+01   0.3016284E-04  -0.4520528E+01   0.3000000E+00
   0.0000000E+00   0.4880952E+01   0.4255556E-04  -0.4371044E+01   0.4255556E-04  -0.4371044E+01   0.3000000E+00
   0.0000000E+00   0.5857143E+01   0.3201199E-04  -0.4494687E+01   0.3201199E-04  -0.4494687E+01   0.3000000E+00
   0.0000000E+00   0.6833333E+01   0.1403860E-04  -0.4852676E+01   0.1403860E-04  -0.4852676E+01   0.3000000E+00
   0.0000000E+00   0.7809524E+01   0.9695972E-05  -0.5013409E+01   0.9695972E-05  -0.5013409E+01   0.3000000E+00
   0.0000000E+00   0.8785714E+01   0.6249650E-04  -0.4204144E+01   0.6249650E-04  -0.4204144E+01   0.3000000E+00
   0.0000000E+00   0.9761905E+01   0.1060076E-03  -0.3974663E+01   0.1060076E-03  -0.3974663E+01   0.3000000E+00
   0.0000000E+00   0.1073810E+02   0.7532152E-07  -0.7123081E+01   0.7532152E-07  -0.7123081E+01   0.3000000E+00
   0.0000000E+00   0.1171429E+02   0.1107489E-06  -0.6955660E+01   0.1107489E-06  -0.6955660E+01   0.3000000E+00
   0.0000000E+00   0.1269048E+02   0.1108708E-06  -0.6955183E+01   0.1108708E-06  -0.6955183E+01   0.3000000E+00
   0.0000000E+00   0.1366667E+02   0.1556431E-06  -0.6807870E+01   0.1556431E-06  -0.6807870E+01   0.3000000E+00
   0.0000000E+00   0.1464286E+02   0.2548221E-06  -0.6593763E+01   0.2548221E-06  -0.6593763E+01   0.3000000E+00
   0.0000000E+00   0.1561905E+02   0.2003960E-04  -0.4698111E+01   0.2003960E-04  -0.4698111E+01   0.3000000E+00
   0.0000000E+00   0.1659524E+02   0.3430910E-04  -0.4464591E+01   0.3430910E-04  -0.4464591E+01   0.3000000E+00
   0.0000000E+00   0.1757143E+02   0.4432330E-04  -0.4353368E+01   0.4432330E-04  -0.4353368E+01   0.3000000E+00
   0.0000000E+00   0.1854762E+02   0.3358268E-04  -0.4473885E+01   0.3358268E-04  -0.4473885E+01   0.3000000E+00
   0.0000000E+00   0.1952381E+02   0.1675356E-04  -0.4775893E+01   0.1675356E-04  -0.4775893E+01   0.3000000E+00
   0.0000000E+00   0.2050000E+02   0.1675356E-04  -0.4775893E+01   0.1675356E-04  -0.4775893E+01   0.3000000E+00
   0.2487805E+01   0.0000000E+00   0.1480419E-04  -0.4829615E+01   0.1480419E-04  -0.4829615E+01   0.3000000E+00
   0.2487805E+01   0.9761905E+00   0.3101003E-04  -0.4508498E+01   0.3101003E-04  -0.4508498E+01   0.3000000E+00
   0.2487805E+01   0.1952381E+01   0.2954193E-04  -0.4529561E+01   0.2954193E-04  -0.4529561E+01   0.3000000E+00
   0.2487805E+01   0.2928571E+01   0.2516139E-04  -0.4599265E+01   0.2516139E-04  -0.4599265E+01   0.3000000E+00
   0.2487805E+01   0.3904762E+01   0.2186988E-04  -0.4660154E+01   0.2186988E-04  -0.4660154E+01   0.3000000E+00
   0.2487805E+01   0.4880952E+01   0.3549921E-04  -0.4449781E+01   0.3549921E-04  -0.4449781E+01   0.3000000E+00
   0.2487805E+01   0.5857143E+01   0.7801574E-04  -0.4107818E+01   0.7801574E-04  -0.4107818E+01   0.3000000E+00
   0.2487805E+01   0.6833333E+01   0.1793422E-04  -0.4746318E+01   0.1793422E-04  -0.4746318E+01   0.3000000E+00
   0.2487805E+01   0.7809524E+01   0.1179187E-04  -0.4928417E+01   0.1179187E-04  -0.4928417E+01   0.3000000E+00
   0.2487805E+01   0.8785714E+01   0.8097258E-04  -0.4091662E+01   0.8097258E-04  -0.4091662E+01   0.3000000E+00
   0.2487805E+01   0.9761905E+01   0.9133285E-04  -0.4039373E+01   0.9133285E-04  -0.4039373E+01   0.3000000E+00
   0.2487805E+01   0.1073810E+02   0.9073570E-08  -0.8042222E+01   0.9073570E-08  -0.8042222E+01   0.3000000E+00
   0.2487805E+01   0.1171429E+02   0.3514793E-07  -0.7454100E+01   0.3514793E-07  -0.7454100E+01   0.3000000E+00
   0.2487805E+01   0.1269048E+02   0.3360806E-07  -0.7473557E+01   0.3360806E-07  -0.7473557E+01   0.3000000E+00
   0.2487805E+01   0.1366667E+02   0.4759206E-07  -0.7322466E+01   0.4759206E-07  -0.7322466E+01   0.3000000E+00
   0.2487805E+01   0.1464286E+02   0.2708041E-04  -0.4567345E+01   0.2708041E-04  -0.4567345E+01   0.3000000E+00
   0.2487805E+01   0.1561905E+02   0.4153392E-04  -0.4381597E+01   0.4153392E-04  -0.4381597E+01   0.3000000E+00
   0.2487805E+01   0.1659524E+02   0.4380774E-04  -0.4358449E+01   0.4380774E-04  -0.4358449E+01   0.3000000E+00
   0.2487805E+01   0.1757143E+02   0.3876860E-04  -0.4411520E+01   0.3876860E-04  -0.4411520E+01   0.3000000E+00
   0.2487805E+01   0.1854762E+02   0.3621272E-04  -0.4441139E+01   0.3621272E-04  -0.4441139E+01   0.3000000E+00
   0.2487805E+01   0.1952381E+02   0.2135980E-04  -0.4670403E+01   0.2135980E-04  -0.4670403E+01   0.3000000E+00
   0.2487805E+01   0.2050000E+02   0.2135980E-04  -0.4670403E+01   0.2135980E-04  -0.4670403E+01   0.3000000E+00
   0.4975610E+01   0.0000000E+00   0.2120020E-04  -0.4673660E+01   0.2120020E-04  -0.4673660E+01   0.3000000E+00
   0.4975610E+01   0.9761905E+00   0.2821660E-04  -0.4549495E+01   0.2821660E-04  -0.4549495E+01   0.3000000E+00
   0.4975610E+01   0.1952381E+01   0.2200370E-04  -0.4657504E+01   0.2200370E-04  -0.4657504E+01   0.3000000E+00
   0.4975610E+01   0.2928571E+01   0.1486948E-04  -0.4827704E+01   0.1486948E-04  -0.4827704E+01   0.3000000E+00
   0.4975610E+01   0.3904762E+01   0.2395580E-04  -0.4620589E+01   0.2395580E-04  -0.4620589E+01   0.3000000E+00
   0.4975610E+01   0.4880952E+01   0.2018239E-04  -0.4695027E+01   0.2018239E-04  -0.4695027E+01   0.3000000E+00
   0.4975610E+01   0.5857143E+01   0.6536001E-04  -0.4184688E+01   0.6536001E-04  -0.4184688E+01   0.3000000E+00
   0.4975610E+01   0.6833333E+01   0.1478792E-04  -0.4830093E+01   0.1478792E-04  -0.4830093E+01   0.3000000E+00
   0.4975610E+01   0.7809524E+01   0.9895801E-05  -0.5004549E+01   0.9895801E-05  -0.5004549E+01   0.3000000E+00
   0.4975610E+01   0.8785714E+01   0.2220263E-04  -0.4653596E+01   0.2220263E-04  -0.4653596E+01   0.3000000E+00
   0.4975610E+01   0.9761905E+01   0.2883271E-04  -0.4540115E+01   0.2883271E-04  -0.4540115E+01   0.3000000E+00
   0.4975610E+01   0.1073810E+02   0.6101690E-08  -0.8214550E+01   0.6101690E-08  -0.8214550E+01   0.3000000E+00
   0.4975610E+01   0.1171429E+02   0.2362170E-07  -0.7626689E+01   0.2362170E-07  -0.7626689E+01   0.3000000E+00
   0.4975610E+01   0.1269048E+02   0.2390687E-07  -0.7621477E+01   0.2390687E-07  -0.7621477E+01   0.3000000E+00
   0.4975610E+01   0.1366667E+02   0.1150729E-06  -0.6939027E+01   0.1150729E-06  -0.6939027E+01   0.3000000E+00
   0.4975610E+01   0.1464286E+02   0.3952805E-04  -0.4403095E+01   0.3952805E-04  -0.4403095E+01   0.3000000E+00
   0.4975610E+01   0.1561905E+02   0.7185934E-04  -0.4143517E+01   0.7185934E-04  -0.4143517E+01   0.3000000E+00
   0.4975610E+01   0.1659524E+02   0.5801552E-04  -0.4236456E+01   0.5801552E-04  -0.4236456E+01   0.3000000E+00
   0.4975610E+01   0.1757143E+02   0.3161433E-04  -0.4500116E+01   0.3161433E-04  -0.4500116E+01   0.3000000E+00
   0.4975610E+01   0.1854762E+02   0.2643822E-04  -0.4577768E+01   0.2643822E-04  -0.4577768E+01   0.3000000E+00
   0.4975610E+01   0.1952381E+02   0.2898013E-04  -0.4537900E+01   0.2898013E-04  -0.4537900E+01   0.3000000E+00
   0.4975610E+01   0.2050000E+02   0.2898013E-04  -0.4537900E+01   0.2898013E-04  -0.4537900E+01   0.3000000E+00
   0.7463415E+01   0.0000000E+00   0.1181784E-04  -0.4927462E+01   0.1181784E-04  -0.4927462E+01   0.3000000E+00
   0.7463415E+01   0.9761905E+00   0.2386017E-04  -0.4622326E+01   0.2386017E-04  -0.4622326E+01   0.3000000E+00
   0.7463415E+01   0.1952381E+01   0.3439842E-04  -0.4463462E+01   0.3439842E-04  -0.4463462E+01   0.3000000E+00
   0.7463415E+01   0.2928571E+01   0.3817613E-04  -0.4418208E+01   0.3817613E-04  -0.4418208E+01   0.3000000E+00
   0.7463415E+01   0.3904762E+01   0.4311240E-04  -0.4365398E+01   0.4311240E-04  -0.4365398E+01   0.3000000E+00
   0.7463415E+01   0.4880952E+01   0.2905267E-04  -0.4536814E+01   0.2905267E-04  -0.4536814E+01   0.3000000E+00
   0.7463415E+01   0.5857143E+01   0.2310180E-04  -0.4636354E+01   0.2310180E-04  -0.4636354E+01   0.3000000E+00
   0.7463415E+01   0.6833333E+01   0.1834782E-04  -0.4736416E+01   0.1834782E-04  -0.4736416E+01   0.3000000E+00
   0.7463415E+01   0.7809524E+01   0.1997159E-04  -0.4699587E+01   0.1997159E-04  -0.4699587E+01   0.3000000E+00
   0.7463415E+01   0.8785714E+01   0.3632516E-04  -0.4439792E+01   0.3632516E-04  -0.4439792E+01   0.3000000E+00
   0.7463415E+01   0.9761905E+01   0.3864860E-04  -0.4412866E+01   0.3864860E-04  -0.4412866E+01   0.3000000E+00
   0.7463415E+01   0.1073810E+02   0.1395120E-07  -0.7855388E+01   0.1395120E-07  -0.7855388E+01   0.3000000E+00
   0.7463415E+01   0.1171429E+02   0.2762347E-07  -0.7558722E+01   0.2762347E-07  -0.7558722E+01   0.3000000E+00
   0.7463415E+01   0.1269048E+02   0.7378467E-08  -0.8132034E+01   0.7378467E-08  -0.8132034E+01   0.3000000E+00
   0.7463415E+01   0.1366667E+02   0.5656361E-07  -0.7247463E+01   0.5656361E-07  -0.7247463E+01   0.3000000E+00
   0.7463415E+01   0.1464286E+02   0.2726246E-04  -0.4564435E+01   0.2726246E-04  -0.4564435E+01   0.3000000E+00
   0.7463415E+01   0.1561905E+02   0.3324188E-04  -0.4478314E+01   0.3324188E-04  -0.4478314E+01   0.3000000E+00
   0.7463415E+01   0.1659524E+02   0.6244028E-04  -0.4204535E+01   0.6244028E-04  -0.4204535E+01   0.3000000E+00
   0.7463415E+01   0.1757143E+02   0.1083547E-03  -0.3965152E+01   0.1083547E-03  -0.3965152E+01   0.3000000E+00
   0.7463415E+01   0.1854762E+02   0.4705469E-04  -0.4327397E+01   0.4705469E-04  -0.4327397E+01   0.3000000E+00
   0.7463415E+01   0.1952381E+02   0.5051703E-04  -0.4296562E+01   0.5051703E-04  -0.4296562E+01   0.3000000E+00
   0.7463415E+01   0.2050000E+02   0.5051703E-04  -0.4296562E+01   0.5051703E-04  -0.4296562E+01   0.3000000E+00
   0.9951220E+01   0.0000000E+00   0.2380774E-04  -0.4623282E+01   0.2380774E-04  -0.4623282E+01   0.3000000E+00
   0.9951220E+01   0.9761905E+00   0.2994345E-04  -0.4523698E+01   0.2994345E-04  -0.4523698E+01   0.3000000E+00
   0.9951220E+01   0.1952381E+01   0.2616207E-04  -0.4582328E+01   0.2616207E-04  -0.4582328E+01   0.3000000E+00
   0.9951220E+01   0.2928571E+01   0.3482413E-04  -0.4458120E+01   0.3482413E-04  -0.4458120E+01   0.3000000E+00
   0.9951220E+01   0.3904762E+01   0.5631779E-04  -0.4249354E+01   0.5631779E-04  -0.4249354E+01   0.3000000E+00
   0.9951220E+01   0.4880952E+01   0.1209039E-04  -0.4917560E+01   0.1209039E-04  -0.4917560E+01   0.3000000E+00
   0.9951220E+01   0.5857143E+01   0.1027189E-04  -0.4988350E+01   0.1027189E-04  -0.4988350E+01   0.3000000E+00
   0.9951220E+01   0.6833333E+01   0.1333258E-04  -0.4875086E+01   0.1333258E-04  -0.4875086E+01   0.3000000E+00
   0.9951220E+01   0.7809524E+01   0.2149694E-04  -0.4667623E+01   0.2149694E-04  -0.4667623E+01   0.3000000E+00
   0.9951220E+01   0.8785714E+01   0.4998438E-04  -0.4301166E+01   0.4998438E-04  -0.4301166E+01   0.3000000E+00
   0.9951220E+01   0.9761905E+01   0.4913691E-04  -0.4308592E+01   0.4913691E-04  -0.4308592E+01   0.3000000E+00
   0.9951220E+01   0.1073810E+02   0.6652420E-07  -0.7177020E+01   0.6652420E-07  -0.7177020E+01   0.3000000E+00
   0.9951220E+01   0.1171429E+02   0.2428517E-07  -0.7614659E+01   0.2428517E-07  -0.7614659E+01   0.3000000E+00
   0.9951220E+01   0.1269048E+02   0.4555707E-07  -0.7341444E+01   0.4555707E-07  -0.7341444E+01   0.3000000E+00
   0.9951220E+01   0.1366667E+02   0.1113263E-06  -0.6953402E+01   0.1113263E-06  -0.6953402E+01   0.3000000E+00
   0.9951220E+01   0.1464286E+02   0.3236930E-04  -0.4489867E+01   0.3236930E-04  -0.4489867E+01   0.3000000E+00
   0.9951220E+01   0.1561905E+02   0.3520931E-04  -0.4453342E+01   0.3520931E-04  -0.4453342E+01   0.3000000E+00
   0.9951220E+01   0.1659524E+02   0.2860297E-04  -0.4543589E+01   0.2860297E-04  -0.4543589E+01   0.3000000E+00
   0.9951220E+01   0.1757143E+02   0.5530208E-04  -0.4257259E+01   0.5530208E-04  -0.4257259E+01   0.3000000E+00
   0.9951220E+01   0.1854762E+02   0.5742103E-04  -0.4240929E+01   0.5742103E-04  -0.4240929E+01   0.3000000E+00
   0.9951220E+01   0.1952381E+02   0.7444872E-04  -0.4128143E+01   0.7444872E-04  -0.4128143E+01   0.3000000E+00
   0.9951220E+01   0.2050000E+02   0.7444872E-04  -0.4128143E+01   0.7444872E-04  -0.4128143E+01   0.3000000E+00
   0.1243902E+02   0.0000000E+00   0.2834386E-04  -0.4547541E+01   0.2834386E-04  -0.4547541E+01   0.3000000E+00
   0.1243902E+02   0.9761905E+00   0.2394143E-04  -0.4620850E+01   0.2394143E-04  -0.4620850E+01   0.3000000E+00
   0.1243902E+02   0.1952381E+01   0.1824171E-04  -0.4738935E+01   0.1824171E-04  -0.4738935E+01   0.3000000E+00
   0.1243902E+02   0.2928571E+01   0.1803133E-04  -0.4743972E+01   0.1803133E-04  -0.4743972E+01   0.3000000E+00
   0.1243902E+02   0.3904762E+01   0.2275558E-04  -0.4642912E+01   0.2275558E-04  -0.4642912E+01   0.3000000E+00
   0.1243902E+02   0.4880952E+01   0.3087079E-04  -0.4510452E+01   0.3087079E-04  -0.4510452E+01   0.3000000E+00
   0.1243902E+02   0.5857143E+01   0.1335126E-04  -0.4874478E+01   0.1335126E-04  -0.4874478E+01   0.3000000E+00
   0.1243902E+02   0.6833333E+01   0.9660163E-05  -0.5015016E+01   0.9660163E-05  -0.5015016E+01   0.3000000E+00
   0.1243902E+02   0.7809524E+01   0.1168038E-04  -0.4932543E+01   0.1168038E-04  -0.4932543E+01   0.3000000E+00
   0.1243902E+02   0.8785714E+01   0.6845732E-04  -0.4164580E+01   0.6845732E-04  -0.4164580E+01   0.3000000E+00
   0.1243902E+02   0.9761905E+01   0.9337378E-04  -0.4029775E+01   0.9337378E-04  -0.4029775E+01   0.3000000E+00
   0.1243902E+02   0.1073810E+02   0.3444507E-07  -0.7462873E+01   0.3444507E-07  -0.7462873E+01   0.3000000E+00
   0.1243902E+02   0.1171429E+02   0.1617984E-07  -0.7791026E+01   0.1617984E-07  -0.7791026E+01   0.3000000E+00
   0.1243902E+02   0.1269048E+02   0.2311001E-07  -0.7636200E+01   0.2311001E-07  -0.7636200E+01   0.3000000E+00
   0.1243902E+02   0.1366667E+02   0.5807097E-07  -0.7236041E+01   0.5807097E-07  -0.7236041E+01   0.3000000E+00
   0.1243902E+02   0.1464286E+02   0.8220454E-04  -0.4085104E+01   0.8220454E-04  -0.4085104E+01   0.3000000E+00
   0.1243902E+02   0.1561905E+02   0.4206056E-04  -0.4376125E+01   0.4206056E-04  -0.4376125E+01   0.3000000E+00
   0.1243902E+02   0.1659524E+02   0.2709124E-04  -0.4567171E+01   0.2709124E-04  -0.4567171E+01   0.3000000E+00
   0.1243902E+02   0.1757143E+02   0.4023393E-04  -0.4395408E+01   0.4023393E-04  -0.4395408E+01   0.3000000E+00
   0.1243902E+02   0.1854762E+02   0.4358925E-04  -0.4360621E+01   0.4358925E-04  -0.4360621E+01   0.3000000E+00
   0.1243902E+02   0.1952381E+02   0.3246656E-04  -0.4488564E+01   0.3246656E-04  -0.4488564E+01   0.3000000E+00
   0.1243902E+02   0.2050000E+02   0.3246656E-04  -0.4488564E+01   0.3246656E-04  -0.4488564E+01   0.3000000E+00
   0.1492683E+02   0.0000000E+00   0.6993111E-04  -0.4155330E+01   0.6993111E-04  -0.4155330E+01   0.3000000E+00
   0.1492683E+02   0.9761905E+00   0.2558511E-04  -0.4592013E+01   0.2558511E-04  -0.4592013E+01   0.3000000E+00
   0.1492683E+02   0.1952381E+01   0.3199919E-04  -0.4494861E+01   0.3199919E-04  -0.4494861E+01   0.3000000E+00
   0.1492683E+02   0.2928571E+01   0.1406248E-04  -0.4851938E+01   0.1406248E-04  -0.4851938E+01   0.3000000E+00
   0.1492683E+02   0.3904762E+01   0.1957416E-04  -0.4708317E+01   0.1957416E-04  -0.4708317E+01   0.3000000E+00
   0.1492683E+02   0.4880952E+01   0.2630372E-04  -0.4579983E+01   0.2630372E-04  -0.4579983E+01   0.3000000E+00
   0.1492683E+02   0.5857143E+01   0.1577633E-04  -0.4801994E+01   0.1577633E-04  -0.4801994E+01   0.3000000E+00
   0.1492683E+02   0.6833333E+01   0.1766898E-04  -0.4752789E+01   0.1766898E-04  -0.4752789E+01   0.3000000E+00
   0.1492683E+02   0.7809524E+01   0.2500837E-04  -0.4601915E+01   0.2500837E-04  -0.4601915E+01   0.3000000E+00
   0.1492683E+02   0.8785714E+01   0.2541680E-04  -0.4594879E+01   0.2541680E-04  -0.4594879E+01   0.3000000E+00
   0.1492683E+02   0.9761905E+01   0.1704251E-04  -0.4768467E+01   0.1704251E-04  -0.4768467E+01   0.3000000E+00
   0.1492683E+02   0.1073810E+02   0.1121740E-07  -0.7950108E+01   0.1121740E-07  -0.7950108E+01   0.3000000E+00
   0.1492683E+02   0.1171429E+02   0.1016617E-07  -0.7992843E+01   0.1016617E-07  -0.7992843E+01   0.3000000E+00
   0.1492683E+02   0.1269048E+02   0.8165891E-08  -0.8087996E+01   0.8165891E-08  -0.8087996E+01   0.3000000E+00
   0.1492683E+02   0.1366667E+02   0.1021202E-07  -0.7990888E+01   0.1021202E-07  -0.7990888E+01   0.3000000E+00
   0.1492683E+02   0.1464286E+02   0.2942988E-04  -0.4531211E+01   0.2942988E-04  -0.4531211E+01   0.3000000E+00
   0.1492683E+02   0.1561905E+02   0.3839820E-04  -0.4415689E+01   0.3839820E-04  -0.4415689E+01   0.3000000E+00
   0.1492683E+02   0.1659524E+02   0.3020811E-04  -0.4519876E+01   0.3020811E-04  -0.4519876E+01   0.3000000E+00
   0.1492683E+02   0.1757143E+02   0.2061070E-04  -0.4685907E+01   0.2061070E-04  -0.4685907E+01   0.3000000E+00
   0.1492683E+02   0.1854762E+02   0.2093475E-04  -0.4679132E+01   0.2093475E-04  -0.4679132E+01   0.3000000E+00
   0.1492683E+02   0.1952381E+02   0.9693064E-05  -0.5013539E+01   0.9693064E-05  -0.5013539E+01   0.3000000E+00
   0.1492683E+02   0.2050000E+02   0.9693064E-05  -0.5013539E+01   0.9693064E-05  -0.5013539E+01   0.3000000E+00
   0.1741463E+02   0.0000000E+00   0.4507873E-04  -0.4346028E+01   0.4507873E-04  -0.4346028E+01   0.3000000E+00
   0.1741463E+02   0.9761905E+00   0.3405274E-04  -0.4467848E+01   0.3405274E-04  -0.4467848E+01   0.3000000E+00
   0.1741463E+02   0.1952381E+01   0.8008557E-05  -0.5096446E+01   0.8008557E-05  -0.5096446E+01   0.3000000E+00
   0.1741463E+02   0.2928571E+01   0.6212172E-05  -0.5206757E+01   0.6212172E-05  -0.5206757E+01   0.3000000E+00
   0.1741463E+02   0.3904762E+01   0.1853963E-04  -0.4731899E+01   0.1853963E-04  -0.4731899E+01   0.3000000E+00
   0.1741463E+02   0.4880952E+01   0.6781006E-04  -0.4168706E+01   0.6781006E-04  -0.4168706E+01   0.3000000E+00
   0.1741463E+02   0.5857143E+01   0.2922459E-04  -0.4534252E+01   0.2922459E-04  -0.4534252E+01   0.3000000E+00
   0.1741463E+02   0.6833333E+01   0.2654418E-04  -0.4576031E+01   0.2654418E-04  -0.4576031E+01   0.3000000E+00
   0.1741463E+02   0.7809524E+01   0.1549334E-04  -0.4809855E+01   0.1549334E-04  -0.4809855E+01   0.3000000E+00
   0.1741463E+02   0.8785714E+01   0.8332059E-05  -0.5079248E+01   0.8332059E-05  -0.5079248E+01   0.3000000E+00
   0.1741463E+02   0.9761905E+01   0.6726201E-05  -0.5172230E+01   0.6726201E-05  -0.5172230E+01   0.3000000E+00
   0.1741463E+02   0.1073810E+02   0.3787025E-07  -0.7421702E+01   0.3787025E-07  -0.7421702E+01   0.3000000E+00
   0.1741463E+02   0.1171429E+02   0.6845324E-08  -0.8164606E+01   0.6845324E-08  -0.8164606E+01   0.3000000E+00
   0.1741463E+02   0.1269048E+02   0.7061559E-08  -0.8151099E+01   0.7061559E-08  -0.8151099E+01   0.3000000E+00
   0.1741463E+02   0.1366667E+02   0.7464555E-08  -0.8126996E+01   0.7464555E-08  -0.8126996E+01   0.3000000E+00
   0.1741463E+02   0.1464286E+02   0.2502338E-04  -0.4601654E+01   0.2502338E-04  -0.4601654E+01   0.3000000E+00
   0.1741463E+02   0.1561905E+02   0.4782797E-04  -0.4320318E+01   0.4782797E-04  -0.4320318E+01   0.3000000E+00
   0.1741463E+02   0.1659524E+02   0.3294734E-04  -0.4482180E+01   0.3294734E-04  -0.4482180E+01   0.3000000E+00
   0.1741463E+02   0.1757143E+02   0.2521932E-04  -0.4598267E+01   0.2521932E-04  -0.4598267E+01   0.3000000E+00
   0.1741463E+02   0.1854762E+02   0.1077912E-04  -0.4967417E+01   0.1077912E-04  -0.4967417E+01   0.3000000E+00
   0.1741463E+02   0.1952381E+02   0.1537912E-04  -0.4813069E+01   0.1537912E-04  -0.4813069E+01   0.3000000E+00
   0.1741463E+02   0.2050000E+02   0.1537912E-04  -0.4813069E+01   0.1537912E-04  -0.4813069E+01   0.3000000E+00
   0.1990244E+02   0.0000000E+00   0.2540918E-04  -0.4595009E+01   0.2540918E-04  -0.4595009E+01   0.3000000E+00
   0.1990244E+02   0.9761905E+00   0.2082826E-04  -0.4681347E+01   0.2082826E-04  -0.4681347E+01   0.3000000E+00
   0.1990244E+02   0.1952381E+01   0.5048598E-05  -0.5296829E+01   0.5048598E-05  -0.5296829E+01   0.3000000E+00
   0.1990244E+02   0.2928571E+01   0.4654854E-05  -0.5332094E+01   0.4654854E-05  -0.5332094E+01   0.3000000E+00
   0.1990244E+02   0.3904762E+01   0.6830587E-05  -0.5165542E+01   0.6830587E-05  -0.5165542E+01   0.3000000E+00
   0.1990244E+02   0.4880952E+01   0.2386256E-04  -0.4622283E+01   0.2386256E-04  -0.4622283E+01   0.3000000E+00
   0.1990244E+02   0.5857143E+01   0.2572879E-04  -0.4589581E+01   0.2572879E-04  -0.4589581E+01   0.3000000E+00
   0.1990244E+02   0.6833333E+01   0.2699929E-04  -0.4568648E+01   0.2699929E-04  -0.4568648E+01   0.3000000E+00
   0.1990244E+02   0.7809524E+01   0.3178869E-04  -0.4497727E+01   0.3178869E-04  -0.4497727E+01   0.3000000E+00
   0.1990244E+02   0.8785714E+01   0.2940341E-04  -0.4531602E+01   0.2940341E-04  -0.4531602E+01   0.3000000E+00
   0.1990244E+02   0.9761905E+01   0.1148809E-04  -0.4939752E+01   0.1148809E-04  -0.4939752E+01   0.3000000E+00
   0.1990244E+02   0.1073810E+02   0.6761743E-07  -0.7169941E+01   0.6761743E-07  -0.7169941E+01   0.3000000E+00
   0.1990244E+02   0.1171429E+02   0.2374723E-07  -0.7624387E+01   0.2374723E-07  -0.7624387E+01   0.3000000E+00
   0.1990244E+02   0.1269048E+02   0.4316590E-08  -0.8364859E+01   0.4316590E-08  -0.8364859E+01   0.3000000E+00
   0.1990244E+02   0.1366667E+02   0.8305774E-09  -0.9080620E+01   0.8305774E-09  -0.9080620E+01   0.3000000E+00
   0.1990244E+02   0.1464286E+02   0.3448107E-04  -0.4462419E+01   0.3448107E-04  -0.4462419E+01   0.3000000E+00
   0.1990244E+02   0.1561905E+02   0.4380336E-04  -0.4358493E+01   0.4380336E-04  -0.4358493E+01   0.3000000E+00
   0.1990244E+02   0.1659524E+02   0.2689958E-04  -0.4570255E+01   0.2689958E-04  -0.4570255E+01   0.3000000E+00
   0.1990244E+02   0.1757143E+02   0.2149264E-04  -0.4667710E+01   0.2149264E-04  -0.4667710E+01   0.3000000E+00
   0.1990244E+02   0.1854762E+02   0.3053613E-04  -0.4515186E+01   0.3053613E-04  -0.4515186E+01   0.3000000E+00
   0.1990244E+02   0.1952381E+02   0.3042031E-04  -0.4516836E+01   0.3042031E-04  -0.4516836E+01   0.3000000E+00
   0.1990244E+02   0.2050000E+02   0.3042031E-04  -0.4516836E+01   0.3042031E-04  -0.4516836E+01   0.3000000E+00
   0.2239024E+02   0.0000000E+00   0.1446180E-04  -0.4839778E+01   0.1446180E-04  -0.4839778E+01   0.3000000E+00
   0.2239024E+02   0.9761905E+00   0.1054984E-04  -0.4976754E+01   0.1054984E-04  -0.4976754E+01   0.3000000E+00
   0.2239024E+02   0.1952381E+01   0.3579813E-05  -0.5446140E+01   0.3579813E-05  -0.5446140E+01   0.3000000E+00
   0.2239024E+02   0.2928571E+01   0.3848989E-05  -0.5414653E+01   0.3848989E-05  -0.5414653E+01   0.3000000E+00
   0.2239024E+02   0.3904762E+01   0.4949124E-05  -0.5305472E+01   0.4949124E-05  -0.5305472E+01   0.3000000E+00
   0.2239024E+02   0.4880952E+01   0.1092890E-04  -0.4961424E+01   0.1092890E-04  -0.4961424E+01   0.3000000E+00
   0.2239024E+02   0.5857143E+01   0.2449847E-04  -0.4610861E+01   0.2449847E-04  -0.4610861E+01   0.3000000E+00
   0.2239024E+02   0.6833333E+01   0.3555250E-04  -0.4449130E+01   0.3555250E-04  -0.4449130E+01   0.3000000E+00
   0.2239024E+02   0.7809524E+01   0.4341524E-04  -0.4362358E+01   0.4341524E-04  -0.4362358E+01   0.3000000E+00
   0.2239024E+02   0.8785714E+01   0.2184366E-04  -0.4660675E+01   0.2184366E-04  -0.4660675E+01   0.3000000E+00
   0.2239024E+02   0.9761905E+01   0.2534574E-04  -0.4596095E+01   0.2534574E-04  -0.4596095E+01   0.3000000E+00
   0.2239024E+02   0.1073810E+02   0.6601393E-07  -0.7180364E+01   0.6601393E-07  -0.7180364E+01   0.3000000E+00
   0.2239024E+02   0.1171429E+02   0.2010495E-07  -0.7696697E+01   0.2010495E-07  -0.7696697E+01   0.3000000E+00
   0.2239024E+02   0.1269048E+02   0.9265204E-08  -0.8033145E+01   0.9265204E-08  -0.8033145E+01   0.3000000E+00
   0.2239024E+02   0.1366667E+02   0.2485766E-07  -0.7604540E+01   0.2485766E-07  -0.7604540E+01   0.3000000E+00
   0.2239024E+02   0.1464286E+02   0.4207318E-04  -0.4375995E+01   0.4207318E-04  -0.4375995E+01   0.3000000E+00
   0.2239024E+02   0.1561905E+02   0.4139295E-04  -0.4383074E+01   0.4139295E-04  -0.4383074E+01   0.3000000E+00
   0.2239024E+02   0.1659524E+02   0.3844430E-04  -0.4415168E+01   0.3844430E-04  -0.4415168E+01   0.3000000E+00
   0.2239024E+02   0.1757143E+02   0.1910616E-04  -0.4718827E+01   0.1910616E-04  -0.4718827E+01   0.3000000E+00
   0.2239024E+02   0.1854762E+02   0.2536349E-04  -0.4595791E+01   0.2536349E-04  -0.4595791E+01   0.3000000E+00
   0.2239024E+02   0.1952381E+02   0.5667372E-04  -0.4246618E+01   0.5667372E-04  -0.4246618E+01   0.3000000E+00
   0.2239024E+02   0.2050000E+02   0.5667372E-04  -0.4246618E+01   0.5667372E-04  -0.4246618E+01   0.3000000E+00
   0.2487805E+02   0.0000000E+00   0.3484503E-04  -0.4457859E+01   0.3484503E-04  -0.4457859E+01   0.3000000E+00
   0.2487805E+02   0.9761905E+00   0.1224736E-04  -0.4911957E+01   0.1224736E-04  -0.4911957E+01   0.3000000E+00
   0.2487805E+02   0.1952381E+01   0.9485939E-05  -0.5022920E+01   0.9485939E-05  -0.5022920E+01   0.3000000E+00
   0.2487805E+02   0.2928571E+01   0.5161414E-05  -0.5287231E+01   0.5161414E-05  -0.5287231E+01   0.3000000E+00
   0.2487805E+02   0.3904762E+01   0.5576774E-05  -0.5253617E+01   0.5576774E-05  -0.5253617E+01   0.3000000E+00
   0.2487805E+02   0.4880952E+01   0.1096283E-04  -0.4960077E+01   0.1096283E-04  -0.4960077E+01   0.3000000E+00
   0.2487805E+02   0.5857143E+01   0.2559279E-04  -0.4591882E+01   0.2559279E-04  -0.4591882E+01   0.3000000E+00
   0.2487805E+02   0.6833333E+01   0.1950968E-04  -0.4709750E+01   0.1950968E-04  -0.4709750E+01   0.3000000E+00
   0.2487805E+02   0.7809524E+01   0.2784381E-04  -0.4555271E+01   0.2784381E-04  -0.4555271E+01   0.3000000E+00
   0.2487805E+02   0.8785714E+01   0.3347874E-04  -0.4475231E+01   0.3347874E-04  -0.4475231E+01   0.3000000E+00
   0.2487805E+02   0.9761905E+01   0.3809605E-04  -0.4419120E+01   0.3809605E-04  -0.4419120E+01   0.3000000E+00
   0.2487805E+02   0.1073810E+02   0.8125285E-07  -0.7090161E+01   0.8125285E-07  -0.7090161E+01   0.3000000E+00
   0.2487805E+02   0.1171429E+02   0.5596161E-07  -0.7252110E+01   0.5596161E-07  -0.7252110E+01   0.3000000E+00
   0.2487805E+02   0.1269048E+02   0.6131140E-07  -0.7212459E+01   0.6131140E-07  -0.7212459E+01   0.3000000E+00
   0.2487805E+02   0.1366667E+02   0.1384578E-06  -0.6858682E+01   0.1384578E-06  -0.6858682E+01   0.3000000E+00
   0.2487805E+02   0.1464286E+02   0.5013957E-04  -0.4299819E+01   0.5013957E-04  -0.4299819E+01   0.3000000E+00
   0.2487805E+02   0.1561905E+02   0.4171708E-04  -0.4379686E+01   0.4171708E-04  -0.4379686E+01   0.3000000E+00
   0.2487805E+02   0.1659524E+02   0.5207112E-04  -0.4283403E+01   0.5207112E-04  -0.4283403E+01   0.3000000E+00
   0.2487805E+02   0.1757143E+02   0.3408000E-04  -0.4467500E+01   0.3408000E-04  -0.4467500E+01   0.3000000E+00
   0.2487805E+02   0.1854762E+02   0.3433999E-04  -0.4464200E+01   0.3433999E-04  -0.4464200E+01   0.3000000E+00
   0.2487805E+02   0.1952381E+02   0.5172859E-04  -0.4286269E+01   0.5172859E-04  -0.4286269E+01   0.3000000E+00
   0.2487805E+02   0.2050000E+02   0.5172859E-04  -0.4286269E+01   0.5172859E-04  -0.4286269E+01   0.3000000E+00
   0.2736585E+02   0.0000000E+00   0.3817613E-04  -0.4418208E+01   0.3817613E-04  -0.4418208E+01   0.3000000E+00
   0.2736585E+02   0.9761905E+00   0.3766422E-04  -0.4424071E+01   0.3766422E-04  -0.4424071E+01   0.3000000E+00
   0.2736585E+02   0.1952381E+01   0.1084832E-04  -0.4964637E+01   0.1084832E-04  -0.4964637E+01   0.3000000E+00
   0.2736585E+02   0.2928571E+01   0.2132352E-04  -0.4671141E+01   0.2132352E-04  -0.4671141E+01   0.3000000E+00
   0.2736585E+02   0.3904762E+01   0.4119062E-04  -0.4385202E+01   0.4119062E-04  -0.4385202E+01   0.3000000E+00
   0.2736585E+02   0.4880952E+01   0.1263424E-04  -0.4898451E+01   0.1263424E-04  -0.4898451E+01   0.3000000E+00
   0.2736585E+02   0.5857143E+01   0.2091383E-04  -0.4679566E+01   0.2091383E-04  -0.4679566E+01   0.3000000E+00
   0.2736585E+02   0.6833333E+01   0.2309487E-04  -0.4636484E+01   0.2309487E-04  -0.4636484E+01   0.3000000E+00
   0.2736585E+02   0.7809524E+01   0.1725860E-04  -0.4762994E+01   0.1725860E-04  -0.4762994E+01   0.3000000E+00
   0.2736585E+02   0.8785714E+01   0.2816304E-04  -0.4550320E+01   0.2816304E-04  -0.4550320E+01   0.3000000E+00
   0.2736585E+02   0.9761905E+01   0.3231755E-04  -0.4490562E+01   0.3231755E-04  -0.4490562E+01   0.3000000E+00
   0.2736585E+02   0.1073810E+02   0.4477638E-06  -0.6348951E+01   0.4477638E-06  -0.6348951E+01   0.3000000E+00
   0.2736585E+02   0.1171429E+02   0.4652458E-06  -0.6332318E+01   0.4652458E-06  -0.6332318E+01   0.3000000E+00
   0.2736585E+02   0.1269048E+02   0.1598388E-06  -0.6796318E+01   0.1598388E-06  -0.6796318E+01   0.3000000E+00
   0.2736585E+02   0.1366667E+02   0.1511641E-06  -0.6820551E+01   0.1511641E-06  -0.6820551E+01   0.3000000E+00
   0.2736585E+02   0.1464286E+02   0.6023241E-04  -0.4220170E+01   0.6023241E-04  -0.4220170E+01   0.3000000E+00
   0.2736585E+02   0.1561905E+02   0.5085155E-04  -0.4293696E+01   0.5085155E-04  -0.4293696E+01   0.3000000E+00
   0.2736585E+02   0.1659524E+02   0.4683405E-04  -0.4329438E+01   0.4683405E-04  -0.4329438E+01   0.3000000E+00
   0.2736585E+02   0.1757143E+02   0.3103795E-04  -0.4508107E+01   0.3103795E-04  -0.4508107E+01   0.3000000E+00
   0.2736585E+02   0.1854762E+02   0.1935229E-04  -0.4713268E+01   0.1935229E-04  -0.4713268E+01   0.3000000E+00
   0.2736585E+02   0.1952381E+02   0.2952716E-04  -0.4529778E+01   0.2952716E-04  -0.4529778E+01   0.3000000E+00
   0.2736585E+02   0.2050000E+02   0.2952716E-04  -0.4529778E+01   0.2952716E-04  -0.4529778E+01   0.3000000E+00