title="2d vectors xy, t=    0.150E+03"
variables="x","y","vx","vy"
zone i=    41, j=    41, T="   0.150E+03"
  0.124390E+01  0.124390E+01  0.911002E-07 -0.405502E-08
  0.124390E+01  0.373171E+01  0.954455E-07 -0.334761E-08
  0.124390E+01  0.621951E+01  0.139440E-06  0.108337E-07
  0.124390E+01  0.870732E+01  0.128981E-06  0.103221E-07
  0.124390E+01  0.111951E+02  0.325780E-06 -0.351498E-08
  0.124390E+01  0.136829E+02  0.229629E-06 -0.292017E-07
  0.124390E+01  0.161707E+02  0.246281E-06 -0.299814E-07
  0.124390E+01  0.186585E+02  0.300031E-06  0.843561E-08
  0.124390E+01  0.211463E+02  0.227434E-06  0.235984E-07
  0.124390E+01  0.236341E+02  0.157192E-06  0.114877E-07
  0.124390E+01  0.261220E+02  0.919759E-07  0.669901E-08
  0.124390E+01  0.286098E+02  0.704611E-07  0.988641E-09
  0.124390E+01  0.310976E+02  0.136933E-06 -0.353712E-08
  0.124390E+01  0.335854E+02  0.199813E-06 -0.282481E-08
  0.124390E+01  0.360732E+02  0.191753E-06  0.198817E-07
  0.124390E+01  0.385610E+02  0.184109E-06  0.694821E-08
  0.124390E+01  0.410488E+02  0.556378E-06  0.177774E-07
  0.124390E+01  0.435366E+02  0.453272E-06 -0.159353E-08
  0.124390E+01  0.460244E+02  0.905272E-06 -0.338729E-07
  0.124390E+01  0.485122E+02  0.838513E-06 -0.622116E-07
  0.124390E+01  0.510000E+02  0.159093E-05 -0.967982E-07
  0.124390E+01  0.534878E+02  0.315669E-06 -0.870674E-08
  0.124390E+01  0.559756E+02  0.388379E-06  0.303873E-08
  0.124390E+01  0.584634E+02  0.180591E-06  0.422295E-08
  0.124390E+01  0.609512E+02  0.216875E-06  0.995135E-08
  0.124390E+01  0.634390E+02  0.228285E-06  0.499151E-08
  0.124390E+01  0.659268E+02  0.286701E-06  0.433002E-08
  0.124390E+01  0.684146E+02  0.305598E-06 -0.497845E-08
  0.124390E+01  0.709024E+02  0.256220E-06 -0.287966E-07
  0.124390E+01  0.733902E+02  0.355979E-06 -0.289701E-07
  0.124390E+01  0.758780E+02  0.125347E-06 -0.446472E-08
  0.124390E+01  0.783659E+02  0.252622E-06 -0.767461E-08
  0.124390E+01  0.808537E+02  0.239375E-06 -0.163858E-07
  0.124390E+01  0.833415E+02  0.487811E-06 -0.277339E-07
  0.124390E+01  0.858293E+02  0.815693E-06 -0.304539E-07
  0.124390E+01  0.883171E+02  0.148222E-05  0.898125E-07
  0.124390E+01  0.908049E+02  0.156586E-05  0.858241E-07
  0.124390E+01  0.932927E+02  0.102549E-05  0.640266E-07
  0.124390E+01  0.957805E+02  0.106062E-05  0.214394E-06
  0.124390E+01  0.982683E+02  0.674808E-06  0.149590E-06
  0.124390E+01  0.100756E+03  0.278113E-06  0.189476E-06
  0.373171E+01  0.124390E+01  0.932158E-07 -0.479926E-08
  0.373171E+01  0.373171E+01  0.695816E-07 -0.270544E-08
  0.373171E+01  0.621951E+01  0.193652E-06  0.175860E-07
  0.373171E+01  0.870732E+01  0.245338E-06  0.309304E-07
  0.373171E+01  0.111951E+02  0.446795E-06  0.995583E-08
  0.373171E+01  0.136829E+02  0.261399E-06 -0.253604E-07
  0.373171E+01  0.161707E+02  0.175874E-06 -0.282435E-07
  0.373171E+01  0.186585E+02  0.167720E-06 -0.191118E-08
  0.373171E+01  0.211463E+02  0.216962E-06  0.402345E-07
  0.373171E+01  0.236341E+02  0.915074E-07  0.718877E-08
  0.373171E+01  0.261220E+02  0.147185E-06  0.781846E-09
  0.373171E+01  0.286098E+02  0.160383E-06 -0.230993E-08
  0.373171E+01  0.310976E+02  0.184402E-06 -0.149652E-08
  0.373171E+01  0.335854E+02  0.102619E-06  0.208711E-07
  0.373171E+01  0.360732E+02  0.798898E-07  0.154567E-07
  0.373171E+01  0.385610E+02  0.308644E-06 -0.274789E-08
  0.373171E+01  0.410488E+02  0.320367E-06 -0.682749E-09
  0.373171E+01  0.435366E+02  0.464865E-06 -0.160617E-07
  0.373171E+01  0.460244E+02  0.100167E-05 -0.148332E-06
  0.373171E+01  0.485122E+02  0.946374E-06 -0.220737E-06
  0.373171E+01  0.510000E+02  0.131142E-05 -0.188284E-06
  0.373171E+01  0.534878E+02  0.396607E-06 -0.399920E-07
  0.373171E+01  0.559756E+02  0.478629E-06 -0.555153E-08
  0.373171E+01  0.584634E+02  0.300897E-06  0.260977E-07
  0.373171E+01  0.609512E+02  0.245805E-06  0.155001E-07
  0.373171E+01  0.634390E+02  0.229014E-06  0.361102E-07
  0.373171E+01  0.659268E+02  0.216152E-06  0.661070E-08
  0.373171E+01  0.684146E+02  0.341246E-06 -0.405805E-07
  0.373171E+01  0.709024E+02  0.231699E-06 -0.524973E-07
  0.373171E+01  0.733902E+02  0.198259E-06 -0.400886E-07
  0.373171E+01  0.758780E+02  0.146783E-06 -0.355883E-07
  0.373171E+01  0.783659E+02  0.174009E-06 -0.290205E-07
  0.373171E+01  0.808537E+02  0.477878E-06 -0.958719E-07
  0.373171E+01  0.833415E+02  0.639959E-06 -0.768695E-07
  0.373171E+01  0.858293E+02  0.991811E-06 -0.460670E-07
  0.373171E+01  0.883171E+02  0.153141E-05  0.262806E-07
  0.373171E+01  0.908049E+02  0.171222E-05  0.315527E-06
  0.373171E+01  0.932927E+02  0.830644E-06  0.373044E-06
  0.373171E+01  0.957805E+02  0.799972E-06  0.410108E-06
  0.373171E+01  0.982683E+02  0.572713E-06  0.299407E-06
  0.373171E+01  0.100756E+03  0.441847E-06  0.102971E-06
  0.621951E+01  0.124390E+01  0.131785E-06  0.634490E-08
  0.621951E+01  0.373171E+01  0.105042E-06 -0.678411E-08
  0.621951E+01  0.621951E+01  0.214634E-06 -0.151788E-07
  0.621951E+01  0.870732E+01  0.359325E-06  0.158906E-07
  0.621951E+01  0.111951E+02  0.683135E-06  0.340916E-07
  0.621951E+01  0.136829E+02  0.380866E-06  0.458499E-07
  0.621951E+01  0.161707E+02  0.285307E-06  0.294338E-07
  0.621951E+01  0.186585E+02  0.949003E-07  0.946424E-08
  0.621951E+01  0.211463E+02  0.173901E-06 -0.565435E-08
  0.621951E+01  0.236341E+02  0.178495E-06 -0.465919E-08
  0.621951E+01  0.261220E+02  0.207223E-06  0.568089E-08
  0.621951E+01  0.286098E+02  0.288353E-06  0.352454E-08
  0.621951E+01  0.310976E+02  0.147900E-06  0.106020E-07
  0.621951E+01  0.335854E+02  0.834528E-07  0.297807E-07
  0.621951E+01  0.360732E+02  0.191288E-06  0.508952E-07
  0.621951E+01  0.385610E+02  0.272505E-06 -0.111572E-07
  0.621951E+01  0.410488E+02  0.244638E-06 -0.462761E-07
  0.621951E+01  0.435366E+02  0.491122E-06 -0.828366E-07
  0.621951E+01  0.460244E+02  0.103299E-05 -0.308917E-06
  0.621951E+01  0.485122E+02  0.995492E-06 -0.413248E-06
  0.621951E+01  0.510000E+02  0.944376E-06 -0.208863E-06
  0.621951E+01  0.534878E+02  0.503056E-06 -0.221285E-07
  0.621951E+01  0.559756E+02  0.238007E-06 -0.249014E-08
  0.621951E+01  0.584634E+02  0.379164E-06  0.225593E-08
  0.621951E+01  0.609512E+02  0.231922E-06  0.212306E-07
  0.621951E+01  0.634390E+02  0.172956E-06  0.291230E-07
  0.621951E+01  0.659268E+02  0.246327E-06  0.136199E-07
  0.621951E+01  0.684146E+02  0.127025E-06 -0.854190E-09
  0.621951E+01  0.709024E+02  0.837082E-07 -0.146524E-07
  0.621951E+01  0.733902E+02  0.132839E-06 -0.456248E-07
  0.621951E+01  0.758780E+02  0.192779E-06 -0.604372E-07
  0.621951E+01  0.783659E+02  0.158897E-06 -0.524488E-07
  0.621951E+01  0.808537E+02  0.499203E-06 -0.976758E-07
  0.621951E+01  0.833415E+02  0.654863E-06 -0.258639E-07
  0.621951E+01  0.858293E+02  0.108523E-05  0.373980E-07
  0.621951E+01  0.883171E+02  0.156740E-05  0.118584E-06
  0.621951E+01  0.908049E+02  0.880026E-06  0.133013E-06
  0.621951E+01  0.932927E+02  0.739088E-06  0.345828E-06
  0.621951E+01  0.957805E+02  0.531008E-06  0.313767E-06
  0.621951E+01  0.982683E+02  0.488141E-06  0.175082E-06
  0.621951E+01  0.100756E+03  0.301845E-06  0.563213E-07
  0.870732E+01  0.124390E+01  0.886539E-07 -0.569487E-08
  0.870732E+01  0.373171E+01  0.185901E-06 -0.268173E-07
  0.870732E+01  0.621951E+01  0.133024E-06 -0.377334E-07
  0.870732E+01  0.870732E+01  0.349637E-06 -0.580752E-07
  0.870732E+01  0.111951E+02  0.497264E-06  0.456818E-07
  0.870732E+01  0.136829E+02  0.296734E-06  0.101037E-06
  0.870732E+01  0.161707E+02  0.219373E-06  0.100183E-06
  0.870732E+01  0.186585E+02  0.116398E-06  0.332908E-07
  0.870732E+01  0.211463E+02  0.160865E-06 -0.164046E-07
  0.870732E+01  0.236341E+02  0.120081E-06 -0.107435E-07
  0.870732E+01  0.261220E+02  0.269525E-06  0.126126E-07
  0.870732E+01  0.286098E+02  0.342042E-06  0.203724E-07
  0.870732E+01  0.310976E+02  0.155459E-06  0.342593E-07
  0.870732E+01  0.335854E+02  0.840095E-07  0.264663E-07
  0.870732E+01  0.360732E+02  0.149571E-06  0.127437E-07
  0.870732E+01  0.385610E+02  0.498799E-06 -0.367360E-07
  0.870732E+01  0.410488E+02  0.172092E-06 -0.648924E-07
  0.870732E+01  0.435366E+02  0.290631E-06 -0.941254E-07
  0.870732E+01  0.460244E+02  0.870708E-06 -0.182775E-06
  0.870732E+01  0.485122E+02  0.480149E-06 -0.148362E-06
  0.870732E+01  0.510000E+02  0.657523E-06 -0.126507E-06
  0.870732E+01  0.534878E+02  0.291934E-06 -0.166607E-07
  0.870732E+01  0.559756E+02  0.407995E-06  0.490719E-08
  0.870732E+01  0.584634E+02  0.336489E-06  0.113521E-07
  0.870732E+01  0.609512E+02  0.256080E-06  0.280125E-07
  0.870732E+01  0.634390E+02  0.149720E-06  0.148932E-07
  0.870732E+01  0.659268E+02  0.136443E-06  0.879234E-08
  0.870732E+01  0.684146E+02  0.107757E-06  0.106043E-08
  0.870732E+01  0.709024E+02  0.236668E-06 -0.399405E-07
  0.870732E+01  0.733902E+02  0.186435E-06 -0.662616E-07
  0.870732E+01  0.758780E+02  0.238687E-06 -0.540833E-07
  0.870732E+01  0.783659E+02  0.360376E-06 -0.666112E-07
  0.870732E+01  0.808537E+02  0.230039E-06 -0.309990E-07
  0.870732E+01  0.833415E+02  0.527687E-06  0.401749E-07
  0.870732E+01  0.858293E+02  0.685389E-06  0.508576E-07
  0.870732E+01  0.883171E+02  0.770796E-06  0.379927E-07
  0.870732E+01  0.908049E+02  0.948937E-06  0.187671E-06
  0.870732E+01  0.932927E+02  0.295732E-06  0.134004E-06
  0.870732E+01  0.957805E+02  0.541596E-06  0.155109E-06
  0.870732E+01  0.982683E+02  0.301342E-06  0.665268E-07
  0.870732E+01  0.100756E+03  0.317445E-06  0.333240E-07
  0.111951E+02  0.124390E+01  0.184192E-06 -0.164084E-07
  0.111951E+02  0.373171E+01  0.136977E-06 -0.143574E-07
  0.111951E+02  0.621951E+01  0.183659E-06 -0.359074E-07
  0.111951E+02  0.870732E+01  0.154211E-06 -0.887567E-08
  0.111951E+02  0.111951E+02  0.135462E-06  0.178134E-07
  0.111951E+02  0.136829E+02  0.212164E-06  0.548042E-07
  0.111951E+02  0.161707E+02  0.136565E-06  0.608014E-07
  0.111951E+02  0.186585E+02  0.139521E-06  0.323260E-07
  0.111951E+02  0.211463E+02  0.130648E-06  0.137920E-07
  0.111951E+02  0.236341E+02  0.687157E-07  0.302979E-08
  0.111951E+02  0.261220E+02  0.195715E-06 -0.636246E-08
  0.111951E+02  0.286098E+02  0.434481E-06  0.223930E-07
  0.111951E+02  0.310976E+02  0.117512E-06  0.278248E-07
  0.111951E+02  0.335854E+02  0.109877E-06  0.262523E-07
  0.111951E+02  0.360732E+02  0.221153E-06 -0.244211E-07
  0.111951E+02  0.385610E+02  0.481564E-06 -0.112419E-06
  0.111951E+02  0.410488E+02  0.292168E-06 -0.157096E-06
  0.111951E+02  0.435366E+02  0.260787E-06 -0.158801E-06
  0.111951E+02  0.460244E+02  0.657819E-06 -0.174753E-06
  0.111951E+02  0.485122E+02  0.384160E-06 -0.104974E-06
  0.111951E+02  0.510000E+02  0.398847E-06 -0.551679E-07
  0.111951E+02  0.534878E+02  0.264139E-06 -0.588987E-08
  0.111951E+02  0.559756E+02  0.365296E-06 -0.128016E-07
  0.111951E+02  0.584634E+02  0.324998E-06  0.113470E-07
  0.111951E+02  0.609512E+02  0.252115E-06  0.272712E-07
  0.111951E+02  0.634390E+02  0.136693E-06  0.194554E-07
  0.111951E+02  0.659268E+02  0.143333E-06 -0.925724E-10
  0.111951E+02  0.684146E+02  0.209784E-06 -0.479858E-07
  0.111951E+02  0.709024E+02  0.461314E-06 -0.735746E-07
  0.111951E+02  0.733902E+02  0.220955E-06 -0.532777E-07
  0.111951E+02  0.758780E+02  0.333386E-06 -0.637142E-07
  0.111951E+02  0.783659E+02  0.474124E-06 -0.361701E-07
  0.111951E+02  0.808537E+02  0.364355E-06 -0.102116E-07
  0.111951E+02  0.833415E+02  0.204433E-06 -0.263686E-08
  0.111951E+02  0.858293E+02  0.823105E-06  0.252958E-07
  0.111951E+02  0.883171E+02  0.737904E-06  0.975430E-07
  0.111951E+02  0.908049E+02  0.467062E-06  0.192072E-06
  0.111951E+02  0.932927E+02  0.390852E-06  0.198493E-06
  0.111951E+02  0.957805E+02  0.431735E-06  0.120304E-06
  0.111951E+02  0.982683E+02  0.302008E-06  0.666853E-07
  0.111951E+02  0.100756E+03  0.324761E-06  0.188128E-07
  0.136829E+02  0.124390E+01  0.253912E-06 -0.109110E-07
  0.136829E+02  0.373171E+01  0.131369E-06 -0.215745E-07
  0.136829E+02  0.621951E+01  0.143431E-06 -0.105511E-07
  0.136829E+02  0.870732E+01  0.110845E-06  0.138451E-07
  0.136829E+02  0.111951E+02  0.179896E-06  0.347422E-07
  0.136829E+02  0.136829E+02  0.132309E-06  0.373020E-07
  0.136829E+02  0.161707E+02  0.107240E-06  0.381153E-07
  0.136829E+02  0.186585E+02  0.281612E-06  0.560775E-07
  0.136829E+02  0.211463E+02  0.990360E-07  0.187815E-07
  0.136829E+02  0.236341E+02  0.126920E-06  0.153172E-07
  0.136829E+02  0.261220E+02  0.176641E-06  0.570743E-08
  0.136829E+02  0.286098E+02  0.232232E-06  0.308432E-07
  0.136829E+02  0.310976E+02  0.101143E-06  0.176889E-07
  0.136829E+02  0.335854E+02  0.818498E-07 -0.115374E-07
  0.136829E+02  0.360732E+02  0.213955E-06 -0.688755E-07
  0.136829E+02  0.385610E+02  0.427802E-06 -0.164552E-06
  0.136829E+02  0.410488E+02  0.289182E-06 -0.173070E-06
  0.136829E+02  0.435366E+02  0.252354E-06 -0.169296E-06
  0.136829E+02  0.460244E+02  0.381034E-06 -0.114976E-06
  0.136829E+02  0.485122E+02  0.321959E-06 -0.342476E-07
  0.136829E+02  0.510000E+02  0.134390E-06  0.746629E-08
  0.136829E+02  0.534878E+02  0.219604E-06  0.105945E-07
  0.136829E+02  0.559756E+02  0.362624E-06 -0.669832E-08
  0.136829E+02  0.584634E+02  0.257388E-06  0.442228E-08
  0.136829E+02  0.609512E+02  0.213961E-06  0.104603E-07
  0.136829E+02  0.634390E+02  0.116389E-06  0.449800E-08
  0.136829E+02  0.659268E+02  0.169541E-06 -0.192963E-07
  0.136829E+02  0.684146E+02  0.207363E-06 -0.603923E-07
  0.136829E+02  0.709024E+02  0.353826E-06 -0.415543E-07
  0.136829E+02  0.733902E+02  0.341577E-06 -0.168487E-07
  0.136829E+02  0.758780E+02  0.512761E-06 -0.389925E-07
  0.136829E+02  0.783659E+02  0.536171E-06 -0.191167E-07
  0.136829E+02  0.808537E+02  0.437633E-06  0.342234E-07
  0.136829E+02  0.833415E+02  0.297110E-06 -0.296304E-07
  0.136829E+02  0.858293E+02  0.491258E-06 -0.286453E-07
  0.136829E+02  0.883171E+02  0.474253E-06  0.113742E-06
  0.136829E+02  0.908049E+02  0.302275E-06  0.141133E-06
  0.136829E+02  0.932927E+02  0.423623E-06  0.163789E-06
  0.136829E+02  0.957805E+02  0.322295E-06  0.106515E-06
  0.136829E+02  0.982683E+02  0.308218E-06  0.604307E-07
  0.136829E+02  0.100756E+03  0.383059E-06  0.158871E-07
  0.161707E+02  0.124390E+01  0.460763E-06 -0.478334E-07
  0.161707E+02  0.373171E+01  0.143904E-06 -0.274111E-07
  0.161707E+02  0.621951E+01  0.181089E-06  0.254279E-07
  0.161707E+02  0.870732E+01  0.723218E-07  0.286347E-07
  0.161707E+02  0.111951E+02  0.184248E-06  0.422875E-07
  0.161707E+02  0.136829E+02  0.139403E-06  0.427622E-07
  0.161707E+02  0.161707E+02  0.212703E-06  0.468402E-07
  0.161707E+02  0.186585E+02  0.169765E-06  0.397796E-07
  0.161707E+02  0.211463E+02  0.272406E-06  0.504519E-07
  0.161707E+02  0.236341E+02  0.115601E-06  0.202994E-08
  0.161707E+02  0.261220E+02  0.693920E-07  0.894182E-08
  0.161707E+02  0.286098E+02  0.102781E-06  0.216281E-07
  0.161707E+02  0.310976E+02  0.129268E-06  0.408770E-08
  0.161707E+02  0.335854E+02  0.163284E-06 -0.588980E-07
  0.161707E+02  0.360732E+02  0.254710E-06 -0.108641E-06
  0.161707E+02  0.385610E+02  0.220685E-06 -0.911750E-07
  0.161707E+02  0.410488E+02  0.207340E-06 -0.107789E-06
  0.161707E+02  0.435366E+02  0.162310E-06 -0.847627E-07
  0.161707E+02  0.460244E+02  0.218562E-06 -0.608629E-07
  0.161707E+02  0.485122E+02  0.958092E-07 -0.650495E-08
  0.161707E+02  0.510000E+02  0.155358E-06  0.633713E-08
  0.161707E+02  0.534878E+02  0.367850E-06  0.162490E-07
  0.161707E+02  0.559756E+02  0.322156E-06  0.500970E-07
  0.161707E+02  0.584634E+02  0.270357E-06  0.486976E-07
  0.161707E+02  0.609512E+02  0.153870E-06  0.328455E-08
  0.161707E+02  0.634390E+02  0.897345E-07 -0.978180E-08
  0.161707E+02  0.659268E+02  0.196263E-06 -0.297528E-07
  0.161707E+02  0.684146E+02  0.275078E-06 -0.716589E-07
  0.161707E+02  0.709024E+02  0.324173E-06 -0.548917E-07
  0.161707E+02  0.733902E+02  0.509066E-06  0.528737E-07
  0.161707E+02  0.758780E+02  0.610607E-06  0.537253E-07
  0.161707E+02  0.783659E+02  0.557068E-06  0.329059E-07
  0.161707E+02  0.808537E+02  0.284420E-06  0.231658E-07
  0.161707E+02  0.833415E+02  0.519340E-06  0.815358E-08
  0.161707E+02  0.858293E+02  0.265032E-06  0.193513E-07
  0.161707E+02  0.883171E+02  0.292787E-06  0.276851E-07
  0.161707E+02  0.908049E+02  0.230353E-06  0.316863E-07
  0.161707E+02  0.932927E+02  0.186896E-06  0.284072E-07
  0.161707E+02  0.957805E+02  0.343406E-06  0.455849E-07
  0.161707E+02  0.982683E+02  0.287074E-06  0.713077E-08
  0.161707E+02  0.100756E+03  0.217743E-06 -0.103819E-08
  0.186585E+02  0.124390E+01  0.442936E-06  0.110977E-07
  0.186585E+02  0.373171E+01  0.132544E-06  0.105191E-07
  0.186585E+02  0.621951E+01  0.104996E-06  0.139388E-07
  0.186585E+02  0.870732E+01  0.901953E-07  0.316608E-07
  0.186585E+02  0.111951E+02  0.125942E-06  0.239565E-07
  0.186585E+02  0.136829E+02  0.221948E-06  0.716055E-07
  0.186585E+02  0.161707E+02  0.209524E-06  0.718798E-07
  0.186585E+02  0.186585E+02  0.151353E-06  0.493015E-07
  0.186585E+02  0.211463E+02  0.199420E-06  0.290635E-07
  0.186585E+02  0.236341E+02  0.148743E-06  0.254496E-07
  0.186585E+02  0.261220E+02  0.646204E-07  0.902101E-08
  0.186585E+02  0.286098E+02  0.925916E-07  0.241464E-08
  0.186585E+02  0.310976E+02  0.194018E-06 -0.337736E-07
  0.186585E+02  0.335854E+02  0.229426E-06 -0.969355E-07
  0.186585E+02  0.360732E+02  0.233516E-06 -0.995683E-07
  0.186585E+02  0.385610E+02  0.164079E-06 -0.796537E-07
  0.186585E+02  0.410488E+02  0.961042E-07 -0.458587E-07
  0.186585E+02  0.435366E+02  0.983705E-07 -0.321114E-07
  0.186585E+02  0.460244E+02  0.787410E-07 -0.136552E-07
  0.186585E+02  0.485122E+02  0.556195E-07 -0.575330E-08
  0.186585E+02  0.510000E+02  0.110390E-06 -0.226005E-07
  0.186585E+02  0.534878E+02  0.292185E-06  0.128508E-07
  0.186585E+02  0.559756E+02  0.203250E-06  0.753063E-07
  0.186585E+02  0.584634E+02  0.260006E-06  0.795947E-07
  0.186585E+02  0.609512E+02  0.259290E-06  0.945595E-08
  0.186585E+02  0.634390E+02  0.215558E-06 -0.491499E-07
  0.186585E+02  0.659268E+02  0.296706E-06 -0.542886E-07
  0.186585E+02  0.684146E+02  0.243869E-06 -0.297648E-07
  0.186585E+02  0.709024E+02  0.384480E-06  0.795765E-08
  0.186585E+02  0.733902E+02  0.326210E-06  0.236248E-07
  0.186585E+02  0.758780E+02  0.834581E-06  0.118697E-06
  0.186585E+02  0.783659E+02  0.484900E-06  0.156906E-06
  0.186585E+02  0.808537E+02  0.439769E-06  0.415535E-07
  0.186585E+02  0.833415E+02  0.388970E-06  0.188298E-07
  0.186585E+02  0.858293E+02  0.162399E-06  0.172924E-07
  0.186585E+02  0.883171E+02  0.290913E-06 -0.201151E-07
  0.186585E+02  0.908049E+02  0.195935E-06 -0.151618E-07
  0.186585E+02  0.932927E+02  0.269648E-06 -0.402827E-07
  0.186585E+02  0.957805E+02  0.346324E-06 -0.856322E-07
  0.186585E+02  0.982683E+02  0.501216E-06 -0.636976E-07
  0.186585E+02  0.100756E+03  0.717129E-06 -0.172779E-07
  0.211463E+02  0.124390E+01  0.374813E-06  0.642683E-07
  0.211463E+02  0.373171E+01  0.235571E-06  0.548858E-07
  0.211463E+02  0.621951E+01  0.786254E-07  0.229885E-08
  0.211463E+02  0.870732E+01  0.106395E-06 -0.704518E-08
  0.211463E+02  0.111951E+02  0.241029E-06 -0.121672E-07
  0.211463E+02  0.136829E+02  0.150209E-06  0.715106E-08
  0.211463E+02  0.161707E+02  0.225447E-06  0.500177E-07
  0.211463E+02  0.186585E+02  0.196168E-06  0.656848E-07
  0.211463E+02  0.211463E+02  0.125415E-06  0.387692E-07
  0.211463E+02  0.236341E+02  0.911348E-07  0.205445E-07
  0.211463E+02  0.261220E+02  0.135082E-06  0.157340E-07
  0.211463E+02  0.286098E+02  0.256050E-06 -0.387939E-07
  0.211463E+02  0.310976E+02  0.280957E-06 -0.912156E-07
  0.211463E+02  0.335854E+02  0.130178E-06 -0.627355E-07
  0.211463E+02  0.360732E+02  0.201537E-06 -0.558152E-07
  0.211463E+02  0.385610E+02  0.111495E-06 -0.245427E-07
  0.211463E+02  0.410488E+02  0.580612E-07 -0.106887E-07
  0.211463E+02  0.435366E+02  0.412419E-07 -0.229234E-08
  0.211463E+02  0.460244E+02  0.629177E-07 -0.250884E-08
  0.211463E+02  0.485122E+02  0.769389E-07 -0.486323E-08
  0.211463E+02  0.510000E+02  0.937298E-07 -0.134325E-07
  0.211463E+02  0.534878E+02  0.109116E-06 -0.416524E-08
  0.211463E+02  0.559756E+02  0.149742E-06  0.234748E-07
  0.211463E+02  0.584634E+02  0.290425E-06  0.387356E-07
  0.211463E+02  0.609512E+02  0.447746E-06  0.122308E-07
  0.211463E+02  0.634390E+02  0.473446E-06 -0.403760E-07
  0.211463E+02  0.659268E+02  0.610307E-06 -0.205674E-07
  0.211463E+02  0.684146E+02  0.511558E-06  0.281516E-07
  0.211463E+02  0.709024E+02  0.254511E-06  0.433753E-07
  0.211463E+02  0.733902E+02  0.389881E-06  0.645734E-07
  0.211463E+02  0.758780E+02  0.334274E-06  0.761357E-07
  0.211463E+02  0.783659E+02  0.373177E-06  0.103403E-06
  0.211463E+02  0.808537E+02  0.655311E-06  0.978732E-07
  0.211463E+02  0.833415E+02  0.218068E-06  0.373267E-07
  0.211463E+02  0.858293E+02  0.205644E-06  0.111038E-07
  0.211463E+02  0.883171E+02  0.178018E-06 -0.895996E-08
  0.211463E+02  0.908049E+02  0.169967E-06 -0.335537E-07
  0.211463E+02  0.932927E+02  0.225659E-06 -0.853306E-07
  0.211463E+02  0.957805E+02  0.462058E-06 -0.169857E-06
  0.211463E+02  0.982683E+02  0.550870E-06 -0.101179E-06
  0.211463E+02  0.100756E+03  0.688092E-06 -0.920790E-08
  0.236341E+02  0.124390E+01  0.248083E-06  0.225275E-07
  0.236341E+02  0.373171E+01  0.374249E-06  0.740637E-07
  0.236341E+02  0.621951E+01  0.199679E-06 -0.116668E-07
  0.236341E+02  0.870732E+01  0.962461E-07 -0.390847E-07
  0.236341E+02  0.111951E+02  0.209521E-06 -0.401545E-07
  0.236341E+02  0.136829E+02  0.127329E-06 -0.198027E-07
  0.236341E+02  0.161707E+02  0.140123E-06  0.508185E-08
  0.236341E+02  0.186585E+02  0.112720E-06  0.214101E-07
  0.236341E+02  0.211463E+02  0.971235E-07  0.371672E-07
  0.236341E+02  0.236341E+02  0.332605E-06  0.122878E-06
  0.236341E+02  0.261220E+02  0.319552E-06 -0.183725E-08
  0.236341E+02  0.286098E+02  0.551581E-06 -0.134460E-06
  0.236341E+02  0.310976E+02  0.458565E-06 -0.129089E-06
  0.236341E+02  0.335854E+02  0.149664E-06 -0.602200E-07
  0.236341E+02  0.360732E+02  0.158633E-06 -0.336520E-07
  0.236341E+02  0.385610E+02  0.112757E-06 -0.613134E-08
  0.236341E+02  0.410488E+02  0.595102E-07  0.502902E-08
  0.236341E+02  0.435366E+02  0.750860E-07  0.136993E-07
  0.236341E+02  0.460244E+02  0.832396E-07  0.135347E-07
  0.236341E+02  0.485122E+02  0.111697E-06 -0.342916E-08
  0.236341E+02  0.510000E+02  0.122607E-06 -0.145777E-07
  0.236341E+02  0.534878E+02  0.101540E-06 -0.310330E-08
  0.236341E+02  0.559756E+02  0.200900E-06 -0.178132E-07
  0.236341E+02  0.584634E+02  0.369554E-06 -0.232317E-07
  0.236341E+02  0.609512E+02  0.261405E-06  0.236782E-08
  0.236341E+02  0.634390E+02  0.722286E-06  0.342317E-07
  0.236341E+02  0.659268E+02  0.869258E-06  0.277931E-07
  0.236341E+02  0.684146E+02  0.486339E-06  0.764919E-07
  0.236341E+02  0.709024E+02  0.235830E-06  0.771378E-07
  0.236341E+02  0.733902E+02  0.200598E-06  0.459983E-07
  0.236341E+02  0.758780E+02  0.155053E-06  0.447531E-07
  0.236341E+02  0.783659E+02  0.357832E-06  0.415683E-07
  0.236341E+02  0.808537E+02  0.282848E-06  0.285887E-07
  0.236341E+02  0.833415E+02  0.341367E-06  0.425764E-07
  0.236341E+02  0.858293E+02  0.165226E-06 -0.171591E-09
  0.236341E+02  0.883171E+02  0.238453E-06  0.106491E-07
  0.236341E+02  0.908049E+02  0.244064E-06 -0.449299E-07
  0.236341E+02  0.932927E+02  0.225624E-06 -0.886842E-07
  0.236341E+02  0.957805E+02  0.340253E-06 -0.110841E-06
  0.236341E+02  0.982683E+02  0.445940E-06 -0.950628E-07
  0.236341E+02  0.100756E+03  0.726355E-06 -0.250353E-07
  0.261220E+02  0.124390E+01  0.337480E-06 -0.174314E-07
  0.261220E+02  0.373171E+01  0.231627E-06 -0.157305E-07
  0.261220E+02  0.621951E+01  0.275034E-06 -0.313878E-07
  0.261220E+02  0.870732E+01  0.143802E-06 -0.543355E-07
  0.261220E+02  0.111951E+02  0.192149E-06 -0.496242E-07
  0.261220E+02  0.136829E+02  0.116658E-06 -0.276380E-07
  0.261220E+02  0.161707E+02  0.106299E-06 -0.296643E-08
  0.261220E+02  0.186585E+02  0.742589E-07  0.364959E-08
  0.261220E+02  0.211463E+02  0.105171E-06  0.748955E-08
  0.261220E+02  0.236341E+02  0.201110E-06  0.307036E-07
  0.261220E+02  0.261220E+02  0.869912E-06  0.180980E-07
  0.261220E+02  0.286098E+02  0.762414E-06 -0.623182E-07
  0.261220E+02  0.310976E+02  0.713144E-06 -0.102645E-06
  0.261220E+02  0.335854E+02  0.279571E-06 -0.103422E-06
  0.261220E+02  0.360732E+02  0.194494E-06 -0.541012E-07
  0.261220E+02  0.385610E+02  0.148578E-06  0.107140E-07
  0.261220E+02  0.410488E+02  0.119314E-06  0.351307E-07
  0.261220E+02  0.435366E+02  0.761296E-07  0.244016E-07
  0.261220E+02  0.460244E+02  0.921438E-07  0.274634E-07
  0.261220E+02  0.485122E+02  0.291561E-06  0.182587E-07
  0.261220E+02  0.510000E+02  0.115533E-06  0.988814E-08
  0.261220E+02  0.534878E+02  0.149699E-06  0.130586E-07
  0.261220E+02  0.559756E+02  0.141422E-06 -0.147741E-07
  0.261220E+02  0.584634E+02  0.292923E-06 -0.483271E-07
  0.261220E+02  0.609512E+02  0.401452E-06 -0.415797E-07
  0.261220E+02  0.634390E+02  0.725356E-06 -0.164379E-07
  0.261220E+02  0.659268E+02  0.108876E-05  0.830404E-07
  0.261220E+02  0.684146E+02  0.167586E-06  0.493366E-07
  0.261220E+02  0.709024E+02  0.166069E-06  0.721431E-07
  0.261220E+02  0.733902E+02  0.309826E-06  0.101620E-06
  0.261220E+02  0.758780E+02  0.161054E-06  0.235334E-07
  0.261220E+02  0.783659E+02  0.142864E-06  0.215710E-07
  0.261220E+02  0.808537E+02  0.303142E-06  0.552164E-07
  0.261220E+02  0.833415E+02  0.319162E-06  0.184177E-07
  0.261220E+02  0.858293E+02  0.140772E-06  0.204589E-08
  0.261220E+02  0.883171E+02  0.158095E-06  0.904761E-09
  0.261220E+02  0.908049E+02  0.402402E-06 -0.391822E-07
  0.261220E+02  0.932927E+02  0.342920E-06 -0.107264E-06
  0.261220E+02  0.957805E+02  0.340935E-06 -0.811279E-07
  0.261220E+02  0.982683E+02  0.294821E-06 -0.486121E-07
  0.261220E+02  0.100756E+03  0.493243E-06 -0.253229E-07
  0.286098E+02  0.124390E+01  0.246535E-06  0.201946E-08
  0.286098E+02  0.373171E+01  0.211690E-06  0.356279E-08
  0.286098E+02  0.621951E+01  0.223919E-06 -0.155949E-07
  0.286098E+02  0.870732E+01  0.133634E-06 -0.253627E-07
  0.286098E+02  0.111951E+02  0.135460E-06 -0.295898E-07
  0.286098E+02  0.136829E+02  0.119572E-06 -0.165316E-07
  0.286098E+02  0.161707E+02  0.691740E-07 -0.862129E-08
  0.286098E+02  0.186585E+02  0.121832E-06 -0.138825E-07
  0.286098E+02  0.211463E+02  0.714517E-07 -0.885573E-08
  0.286098E+02  0.236341E+02  0.186041E-06 -0.299750E-07
  0.286098E+02  0.261220E+02  0.349165E-06 -0.164321E-07
  0.286098E+02  0.286098E+02  0.870073E-06  0.127826E-07
  0.286098E+02  0.310976E+02  0.945120E-06 -0.107526E-06
  0.286098E+02  0.335854E+02  0.429247E-06 -0.123718E-06
  0.286098E+02  0.360732E+02  0.193600E-06 -0.326164E-07
  0.286098E+02  0.385610E+02  0.186442E-06  0.238846E-07
  0.286098E+02  0.410488E+02  0.160892E-06  0.626510E-07
  0.286098E+02  0.435366E+02  0.205504E-06  0.117432E-06
  0.286098E+02  0.460244E+02  0.201443E-06  0.767876E-07
  0.286098E+02  0.485122E+02  0.260100E-06  0.533014E-07
  0.286098E+02  0.510000E+02  0.120802E-06  0.469479E-07
  0.286098E+02  0.534878E+02  0.223158E-06  0.343636E-07
  0.286098E+02  0.559756E+02  0.301270E-06 -0.382773E-07
  0.286098E+02  0.584634E+02  0.238106E-06 -0.601454E-07
  0.286098E+02  0.609512E+02  0.219558E-06 -0.445118E-07
  0.286098E+02  0.634390E+02  0.496798E-06 -0.365438E-07
  0.286098E+02  0.659268E+02  0.568822E-06  0.611630E-07
  0.286098E+02  0.684146E+02  0.254470E-06  0.856473E-07
  0.286098E+02  0.709024E+02  0.251045E-06  0.483366E-07
  0.286098E+02  0.733902E+02  0.170826E-06  0.341240E-07
  0.286098E+02  0.758780E+02  0.312960E-06  0.599281E-07
  0.286098E+02  0.783659E+02  0.180366E-06  0.991169E-08
  0.286098E+02  0.808537E+02  0.236297E-06  0.196446E-07
  0.286098E+02  0.833415E+02  0.305829E-06  0.346924E-07
  0.286098E+02  0.858293E+02  0.150992E-06  0.220772E-07
  0.286098E+02  0.883171E+02  0.268990E-06  0.225793E-08
  0.286098E+02  0.908049E+02  0.326419E-06 -0.603781E-08
  0.286098E+02  0.932927E+02  0.255876E-06  0.229558E-08
  0.286098E+02  0.957805E+02  0.185817E-06  0.817771E-08
  0.286098E+02  0.982683E+02  0.300667E-06 -0.168533E-07
  0.286098E+02  0.100756E+03  0.370628E-06 -0.222203E-07
  0.310976E+02  0.124390E+01  0.254997E-06  0.191737E-07
  0.310976E+02  0.373171E+01  0.181391E-06  0.353162E-07
  0.310976E+02  0.621951E+01  0.335984E-06  0.249282E-07
  0.310976E+02  0.870732E+01  0.250895E-06 -0.310123E-07
  0.310976E+02  0.111951E+02  0.102672E-06 -0.302628E-07
  0.310976E+02  0.136829E+02  0.110811E-06 -0.306474E-07
  0.310976E+02  0.161707E+02  0.139903E-06 -0.377136E-07
  0.310976E+02  0.186585E+02  0.936918E-07 -0.190091E-07
  0.310976E+02  0.211463E+02  0.156661E-06 -0.480675E-07
  0.310976E+02  0.236341E+02  0.360462E-06 -0.832157E-07
  0.310976E+02  0.261220E+02  0.393053E-06 -0.842254E-07
  0.310976E+02  0.286098E+02  0.980085E-06 -0.131626E-06
  0.310976E+02  0.310976E+02  0.122853E-05 -0.907019E-07
  0.310976E+02  0.335854E+02  0.393828E-06 -0.325299E-07
  0.310976E+02  0.360732E+02  0.143238E-06 -0.711462E-08
  0.310976E+02  0.385610E+02  0.279790E-06  0.123525E-07
  0.310976E+02  0.410488E+02  0.162310E-06  0.590778E-07
  0.310976E+02  0.435366E+02  0.157919E-06  0.107960E-06
  0.310976E+02  0.460244E+02  0.377836E-06  0.170115E-06
  0.310976E+02  0.485122E+02  0.383881E-06  0.105493E-06
  0.310976E+02  0.510000E+02  0.182309E-06  0.105428E-06
  0.310976E+02  0.534878E+02  0.477732E-06  0.724655E-07
  0.310976E+02  0.559756E+02  0.300088E-06 -0.209628E-07
  0.310976E+02  0.584634E+02  0.326566E-06 -0.381109E-07
  0.310976E+02  0.609512E+02  0.263824E-06 -0.307227E-07
  0.310976E+02  0.634390E+02  0.383412E-06 -0.100569E-07
  0.310976E+02  0.659268E+02  0.424168E-06  0.761020E-07
  0.310976E+02  0.684146E+02  0.334095E-06  0.719199E-07
  0.310976E+02  0.709024E+02  0.484243E-06  0.134816E-07
  0.310976E+02  0.733902E+02  0.559913E-06 -0.563659E-07
  0.310976E+02  0.758780E+02  0.532374E-06  0.137193E-07
  0.310976E+02  0.783659E+02  0.238749E-06  0.251406E-07