title="2d vectors xz, t=    0.150E+03"
variables="x","z","vx","vz"
zone i=    21, j=    41, T="   0.150E+03"
  0.124390E+01  0.488051E+00  0.911002E-07  0.344771E-08
  0.124390E+01  0.146415E+01  0.108993E-06 -0.106177E-08
  0.124390E+01  0.244025E+01  0.199162E-06 -0.220522E-08
  0.124390E+01  0.341635E+01  0.157799E-06 -0.421406E-09
  0.124390E+01  0.439245E+01  0.151518E-06  0.124704E-08
  0.124390E+01  0.536856E+01  0.220827E-06  0.162272E-07
  0.124390E+01  0.634466E+01  0.171899E-06  0.253836E-08
  0.124390E+01  0.732076E+01  0.719408E-07 -0.989287E-08
  0.124390E+01  0.829686E+01  0.436155E-07 -0.864497E-08
  0.124390E+01  0.927296E+01  0.253743E-06 -0.140893E-07
  0.124390E+01  0.102491E+02  0.416586E-06 -0.113251E-07
  0.124390E+01  0.112252E+02  0.321268E-09  0.724697E-10
  0.124390E+01  0.122013E+02  0.606287E-09  0.234812E-09
  0.124390E+01  0.131774E+02  0.957858E-09  0.659462E-09
  0.124390E+01  0.141535E+02  0.221574E-08  0.129480E-08
  0.124390E+01  0.151296E+02  0.430013E-08 -0.405606E-09
  0.124390E+01  0.161057E+02  0.312379E-06 -0.338455E-07
  0.124390E+01  0.170818E+02  0.497237E-06 -0.378443E-07
  0.124390E+01  0.180579E+02  0.618922E-06 -0.108884E-07
  0.124390E+01  0.190340E+02  0.468003E-06  0.585593E-08
  0.124390E+01  0.200101E+02  0.208163E-06  0.427961E-07
  0.373171E+01  0.487869E+00  0.932158E-07 -0.330469E-08
  0.373171E+01  0.146361E+01  0.183801E-06 -0.135630E-07
  0.373171E+01  0.243935E+01  0.165756E-06 -0.171323E-07
  0.373171E+01  0.341508E+01  0.134630E-06 -0.558858E-08
  0.373171E+01  0.439082E+01  0.114181E-06 -0.115427E-08
  0.373171E+01  0.536656E+01  0.175033E-06  0.561267E-08
  0.373171E+01  0.634230E+01  0.360686E-06 -0.159382E-08
  0.373171E+01  0.731804E+01  0.795394E-07 -0.306812E-07
  0.373171E+01  0.829377E+01  0.472611E-07 -0.303333E-07
  0.373171E+01  0.926951E+01  0.296627E-06 -0.438484E-07
  0.373171E+01  0.102452E+02  0.333578E-06 -0.138148E-07
  0.373171E+01  0.112210E+02  0.645202E-10  0.969280E-10
  0.373171E+01  0.121967E+02  0.409554E-09  0.248380E-09
  0.373171E+01  0.131725E+02  0.430324E-09  0.403763E-09
  0.373171E+01  0.141482E+02  0.501909E-09  0.512711E-09
  0.373171E+01  0.151239E+02  0.243255E-06 -0.352042E-07
  0.373171E+01  0.160997E+02  0.427783E-06 -0.791421E-07
  0.373171E+01  0.170754E+02  0.479363E-06 -0.894265E-07
  0.373171E+01  0.180512E+02  0.418650E-06 -0.396869E-07
  0.373171E+01  0.190269E+02  0.381961E-06  0.872669E-08
  0.373171E+01  0.200026E+02  0.232876E-06 -0.980720E-08
  0.621951E+01  0.487667E+00  0.131785E-06 -0.215777E-08
  0.621951E+01  0.146300E+01  0.191877E-06 -0.333238E-09
  0.621951E+01  0.243833E+01  0.164778E-06 -0.124036E-08
  0.621951E+01  0.341367E+01  0.118678E-06 -0.227449E-08
  0.621951E+01  0.438900E+01  0.190748E-06 -0.119994E-07
  0.621951E+01  0.536433E+01  0.150418E-06 -0.289502E-07
  0.621951E+01  0.633967E+01  0.450751E-06 -0.412905E-07
  0.621951E+01  0.731500E+01  0.108210E-06 -0.748381E-08
  0.621951E+01  0.829033E+01  0.857182E-07 -0.142296E-07
  0.621951E+01  0.926567E+01  0.210167E-06 -0.112299E-07
  0.621951E+01  0.102410E+02  0.273243E-06 -0.539821E-08
  0.621951E+01  0.112163E+02  0.532290E-10  0.107536E-09
  0.621951E+01  0.121917E+02  0.166539E-09  0.175955E-09
  0.621951E+01  0.131670E+02  0.153654E-09  0.310503E-09
  0.621951E+01  0.141423E+02  0.753408E-09  0.500879E-09
  0.621951E+01  0.151177E+02  0.247269E-06  0.154626E-07
  0.621951E+01  0.160930E+02  0.475926E-06  0.502584E-07
  0.621951E+01  0.170683E+02  0.469175E-06  0.421982E-07
  0.621951E+01  0.180437E+02  0.303793E-06 -0.874494E-08
  0.621951E+01  0.190190E+02  0.261723E-06 -0.107497E-07
  0.621951E+01  0.199943E+02  0.273168E-06 -0.330785E-08
  0.870732E+01  0.487482E+00  0.886539E-07 -0.121080E-09
  0.870732E+01  0.146244E+01  0.166051E-06  0.656065E-10
  0.870732E+01  0.243741E+01  0.221976E-06  0.135555E-07
  0.870732E+01  0.341237E+01  0.238984E-06  0.614969E-08
  0.870732E+01  0.438733E+01  0.270716E-06 -0.350894E-07
  0.870732E+01  0.536230E+01  0.189305E-06 -0.528372E-07
  0.870732E+01  0.633726E+01  0.164245E-06 -0.353940E-08
  0.870732E+01  0.731222E+01  0.139806E-06  0.255285E-07
  0.870732E+01  0.828719E+01  0.159614E-06  0.208816E-07
  0.870732E+01  0.926215E+01  0.304908E-06  0.315247E-08
  0.870732E+01  0.102371E+02  0.334999E-06 -0.204381E-08
  0.870732E+01  0.112121E+02  0.108427E-09  0.185362E-09
  0.870732E+01  0.121870E+02  0.242235E-09  0.278138E-09
  0.870732E+01  0.131620E+02  0.796165E-10  0.102873E-09
  0.870732E+01  0.141370E+02  0.579064E-09  0.130029E-09
  0.870732E+01  0.151119E+02  0.259070E-06 -0.470286E-08
  0.870732E+01  0.160869E+02  0.287808E-06  0.150543E-08
  0.870732E+01  0.170619E+02  0.438985E-06  0.602378E-07
  0.870732E+01  0.180368E+02  0.660375E-06  0.106462E-06
  0.870732E+01  0.190118E+02  0.316957E-06  0.334622E-07
  0.870732E+01  0.199867E+02  0.388238E-06 -0.878654E-09
  0.111951E+02  0.487353E+00  0.184192E-06 -0.107840E-07
  0.111951E+02  0.146206E+01  0.233550E-06 -0.232942E-07
  0.111951E+02  0.243677E+01  0.195668E-06 -0.244864E-07
  0.111951E+02  0.341147E+01  0.239996E-06 -0.174486E-07
  0.111951E+02  0.438618E+01  0.393057E-06  0.681010E-08
  0.111951E+02  0.536089E+01  0.972526E-07  0.685749E-08
  0.111951E+02  0.633559E+01  0.877650E-07  0.260128E-08
  0.111951E+02  0.731030E+01  0.105146E-06  0.810935E-08
  0.111951E+02  0.828501E+01  0.157490E-06  0.290142E-07
  0.111951E+02  0.925971E+01  0.366567E-06  0.413734E-07
  0.111951E+02  0.102344E+02  0.368324E-06  0.157067E-07
  0.111951E+02  0.112091E+02  0.444966E-09  0.570123E-09
  0.111951E+02  0.121838E+02  0.178682E-09  0.462507E-09
  0.111951E+02  0.131585E+02  0.398971E-09  0.624406E-09
  0.111951E+02  0.141332E+02  0.114310E-08  0.554783E-09
  0.111951E+02  0.151080E+02  0.378860E-06 -0.344804E-07
  0.111951E+02  0.160827E+02  0.395634E-06 -0.849373E-07
  0.111951E+02  0.170574E+02  0.304051E-06 -0.652229E-07
  0.111951E+02  0.180321E+02  0.539773E-06 -0.210602E-07
  0.111951E+02  0.190068E+02  0.482600E-06  0.144164E-07
  0.111951E+02  0.199815E+02  0.536055E-06 -0.154742E-07
  0.136829E+02  0.487238E+00  0.253912E-06 -0.169766E-07
  0.136829E+02  0.146172E+01  0.208568E-06 -0.263628E-07
  0.136829E+02  0.243619E+01  0.162386E-06 -0.172581E-07
  0.136829E+02  0.341067E+01  0.168461E-06 -0.156102E-07
  0.136829E+02  0.438515E+01  0.214537E-06  0.210873E-07
  0.136829E+02  0.535962E+01  0.278493E-06  0.445011E-07
  0.136829E+02  0.633410E+01  0.118957E-06  0.497016E-08
  0.136829E+02  0.730858E+01  0.868466E-07 -0.951494E-08
  0.136829E+02  0.828305E+01  0.887835E-07 -0.237569E-07
  0.136829E+02  0.925753E+01  0.380901E-06 -0.664290E-07
  0.136829E+02  0.102320E+02  0.414728E-06 -0.311706E-07
  0.136829E+02  0.112065E+02  0.206278E-09  0.382880E-09
  0.136829E+02  0.121810E+02  0.112675E-09  0.335017E-09
  0.136829E+02  0.131554E+02  0.164743E-09  0.370919E-09
  0.136829E+02  0.141299E+02  0.493141E-09  0.579714E-09
  0.136829E+02  0.151044E+02  0.778065E-06  0.726725E-08
  0.136829E+02  0.160789E+02  0.463693E-06 -0.327756E-07
  0.136829E+02  0.170533E+02  0.321102E-06 -0.907246E-07
  0.136829E+02  0.180278E+02  0.449931E-06 -0.130506E-06
  0.136829E+02  0.190023E+02  0.452773E-06 -0.103734E-06
  0.136829E+02  0.199768E+02  0.321751E-06 -0.607137E-07
  0.161707E+02  0.487057E+00  0.460763E-06 -0.167072E-07
  0.161707E+02  0.146117E+01  0.181417E-06 -0.207259E-07
  0.161707E+02  0.243528E+01  0.233661E-06 -0.678555E-08
  0.161707E+02  0.340940E+01  0.119354E-06  0.359130E-07
  0.161707E+02  0.438351E+01  0.202796E-06  0.491330E-07
  0.161707E+02  0.535763E+01  0.290746E-06  0.155516E-07
  0.161707E+02  0.633174E+01  0.167538E-06 -0.267615E-08
  0.161707E+02  0.730585E+01  0.173784E-06 -0.395979E-07
  0.161707E+02  0.827997E+01  0.245758E-06 -0.108797E-06
  0.161707E+02  0.925408E+01  0.260716E-06 -0.701472E-07
  0.161707E+02  0.102282E+02  0.177765E-06 -0.165434E-07
  0.161707E+02  0.112023E+02  0.109826E-09  0.157898E-09
  0.161707E+02  0.121764E+02  0.989266E-10  0.204372E-09
  0.161707E+02  0.131505E+02  0.971582E-10  0.184810E-09
  0.161707E+02  0.141247E+02  0.165885E-09  0.183853E-09
  0.161707E+02  0.150988E+02  0.551901E-06  0.285355E-07
  0.161707E+02  0.160729E+02  0.698281E-06  0.335069E-07
  0.161707E+02  0.170470E+02  0.562660E-06 -0.531867E-07
  0.161707E+02  0.180211E+02  0.406852E-06 -0.762890E-07
  0.161707E+02  0.189952E+02  0.429742E-06 -0.407213E-07
  0.161707E+02  0.199693E+02  0.209877E-06 -0.632701E-08
  0.186585E+02  0.486650E+00  0.442936E-06  0.692838E-08
  0.186585E+02  0.145995E+01  0.332601E-06 -0.238178E-08
  0.186585E+02  0.243325E+01  0.807442E-07  0.314699E-08
  0.186585E+02  0.340655E+01  0.573083E-07  0.173326E-07
  0.186585E+02  0.437985E+01  0.136653E-06  0.431199E-07
  0.186585E+02  0.535315E+01  0.462104E-06  0.764895E-07
  0.186585E+02  0.632645E+01  0.234826E-06  0.381560E-07
  0.186585E+02  0.729975E+01  0.277219E-06  0.115586E-07
  0.186585E+02  0.827305E+01  0.206609E-06  0.526425E-08
  0.186585E+02  0.924635E+01  0.130483E-06 -0.341304E-08
  0.186585E+02  0.102196E+02  0.111518E-06 -0.356969E-08
  0.186585E+02  0.111929E+02  0.571732E-09  0.311276E-09
  0.186585E+02  0.121662E+02  0.801680E-10  0.117588E-09
  0.186585E+02  0.131395E+02  0.679573E-10  0.182157E-09
  0.186585E+02  0.141128E+02  0.103675E-09  0.275398E-09
  0.186585E+02  0.150861E+02  0.458436E-06 -0.396282E-08
  0.186585E+02  0.160594E+02  0.862053E-06 -0.992135E-08
  0.186585E+02  0.170327E+02  0.595788E-06  0.196655E-07
  0.186585E+02  0.180060E+02  0.501552E-06  0.352719E-07
  0.186585E+02  0.189793E+02  0.244634E-06  0.231084E-07
  0.186585E+02  0.199526E+02  0.364795E-06  0.115759E-07
  0.211463E+02  0.486263E+00  0.374813E-06 -0.488210E-08
  0.211463E+02  0.145879E+01  0.304674E-06 -0.393955E-08
  0.211463E+02  0.243132E+01  0.717536E-07  0.129079E-08
  0.211463E+02  0.340384E+01  0.637900E-07 -0.262979E-08
  0.211463E+02  0.437637E+01  0.891118E-07 -0.508272E-08
  0.211463E+02  0.534890E+01  0.297154E-06  0.300455E-07
  0.211463E+02  0.632142E+01  0.310106E-06  0.842945E-07
  0.211463E+02  0.729395E+01  0.309139E-06  0.833175E-07
  0.211463E+02  0.826648E+01  0.329368E-06  0.732184E-07
  0.211463E+02  0.923900E+01  0.279433E-06  0.406199E-07
  0.211463E+02  0.102115E+02  0.112240E-06  0.818302E-08
  0.211463E+02  0.111841E+02  0.722231E-09  0.373214E-09
  0.211463E+02  0.121566E+02  0.283238E-09  0.342449E-09
  0.211463E+02  0.131291E+02  0.836667E-10  0.182669E-09
  0.211463E+02  0.141016E+02  0.178101E-10  0.304015E-10
  0.211463E+02  0.150742E+02  0.577714E-06 -0.172198E-07
  0.211463E+02  0.160467E+02  0.744016E-06 -0.149424E-08
  0.211463E+02  0.170192E+02  0.461396E-06  0.269694E-07
  0.211463E+02  0.179917E+02  0.347399E-06  0.662283E-07
  0.211463E+02  0.189643E+02  0.455946E-06  0.137242E-06
  0.211463E+02  0.199368E+02  0.452153E-06  0.259584E-07
  0.236341E+02  0.485980E+00  0.248083E-06 -0.587495E-08
  0.236341E+02  0.145794E+01  0.179823E-06 -0.601784E-08
  0.236341E+02  0.242990E+01  0.603734E-07 -0.317674E-08
  0.236341E+02  0.340186E+01  0.614157E-07 -0.117408E-07
  0.236341E+02  0.437382E+01  0.726982E-07 -0.157786E-07
  0.236341E+02  0.534578E+01  0.146863E-06 -0.111286E-07
  0.236341E+02  0.631773E+01  0.286344E-06  0.128690E-08
  0.236341E+02  0.728969E+01  0.356100E-06  0.173594E-07
  0.236341E+02  0.826165E+01  0.417509E-06  0.474774E-07
  0.236341E+02  0.923361E+01  0.221475E-06  0.378891E-07
  0.236341E+02  0.102056E+02  0.256714E-06  0.257488E-07
  0.236341E+02  0.111775E+02  0.836486E-09  0.928256E-09
  0.236341E+02  0.121495E+02  0.434195E-09  0.641915E-09
  0.236341E+02  0.131214E+02  0.228998E-09  0.480974E-09
  0.236341E+02  0.140934E+02  0.471637E-09  0.438048E-09
  0.236341E+02  0.150654E+02  0.685871E-06 -0.144622E-07
  0.236341E+02  0.160373E+02  0.672320E-06  0.102923E-07
  0.236341E+02  0.170093E+02  0.617532E-06  0.264963E-07
  0.236341E+02  0.179812E+02  0.303132E-06  0.687590E-08
  0.236341E+02  0.189532E+02  0.369991E-06  0.201076E-07
  0.236341E+02  0.199252E+02  0.733364E-06  0.942223E-08
  0.261220E+02  0.485758E+00  0.337480E-06  0.476884E-08
  0.261220E+02  0.145727E+01  0.124813E-06 -0.120264E-08
  0.261220E+02  0.242879E+01  0.100187E-06 -0.827679E-08
  0.261220E+02  0.340031E+01  0.608641E-07 -0.115745E-07
  0.261220E+02  0.437182E+01  0.742377E-07 -0.186929E-07
  0.261220E+02  0.534334E+01  0.141209E-06 -0.566269E-07
  0.261220E+02  0.631485E+01  0.307185E-06 -0.647810E-07
  0.261220E+02  0.728637E+01  0.227815E-06 -0.398957E-07
  0.261220E+02  0.825789E+01  0.293597E-06 -0.825987E-08
  0.261220E+02  0.922940E+01  0.306116E-06  0.293341E-07
  0.261220E+02  0.102009E+02  0.324712E-06  0.991262E-08
  0.261220E+02  0.111724E+02  0.836042E-09  0.210121E-08
  0.261220E+02  0.121439E+02  0.441760E-09  0.206360E-08
  0.261220E+02  0.131155E+02  0.317933E-09  0.294637E-08
  0.261220E+02  0.140870E+02  0.166107E-08  0.335735E-08
  0.261220E+02  0.150585E+02  0.864491E-06 -0.186186E-07
  0.261220E+02  0.160300E+02  0.699031E-06 -0.466775E-07
  0.261220E+02  0.170015E+02  0.815512E-06 -0.628367E-07
  0.261220E+02  0.179730E+02  0.481250E-06 -0.747834E-07
  0.261220E+02  0.189446E+02  0.444791E-06 -0.100252E-06
  0.261220E+02  0.199161E+02  0.655192E-06 -0.556021E-07
  0.286098E+02  0.485545E+00  0.246535E-06  0.100145E-07
  0.286098E+02  0.145664E+01  0.234946E-06  0.191790E-07
  0.286098E+02  0.242773E+01  0.703000E-07  0.978268E-09
  0.286098E+02  0.339882E+01  0.131554E-06 -0.181226E-07
  0.286098E+02  0.436991E+01  0.251198E-06 -0.426197E-07
  0.286098E+02  0.534100E+01  0.103969E-06 -0.395681E-07
  0.286098E+02  0.631209E+01  0.213320E-06 -0.369756E-07
  0.286098E+02  0.728318E+01  0.249031E-06 -0.496845E-07
  0.286098E+02  0.825427E+01  0.187850E-06 -0.489070E-07
  0.286098E+02  0.922536E+01  0.294874E-06 -0.348505E-07
  0.286098E+02  0.101964E+02  0.329836E-06  0.350529E-08
  0.286098E+02  0.111675E+02  0.535741E-08  0.156974E-07
  0.286098E+02  0.121386E+02  0.622995E-08  0.117360E-07
  0.286098E+02  0.131097E+02  0.190734E-08  0.784367E-08
  0.286098E+02  0.140808E+02  0.205751E-08  0.680602E-08
  0.286098E+02  0.150519E+02  0.980078E-06 -0.528254E-07
  0.286098E+02  0.160230E+02  0.806470E-06 -0.148178E-06
  0.286098E+02  0.169941E+02  0.722208E-06 -0.156576E-06
  0.286098E+02  0.179652E+02  0.478512E-06 -0.124647E-06
  0.286098E+02  0.189363E+02  0.301911E-06 -0.701361E-07
  0.286098E+02  0.199074E+02  0.455356E-06 -0.462341E-07
  0.310976E+02  0.485253E+00  0.254997E-06  0.191991E-08
  0.310976E+02  0.145576E+01  0.135757E-06  0.914303E-08
  0.310976E+02  0.242627E+01  0.211999E-06  0.123186E-07
  0.310976E+02  0.339677E+01  0.142100E-06  0.180079E-07
  0.310976E+02  0.436728E+01  0.102148E-06  0.310913E-07
  0.310976E+02  0.533779E+01  0.199918E-06  0.363806E-07
  0.310976E+02  0.630829E+01  0.256268E-06  0.836335E-08
  0.310976E+02  0.727880E+01  0.334270E-06 -0.198091E-07
  0.310976E+02  0.824931E+01  0.198752E-06 -0.381843E-07
  0.310976E+02  0.921981E+01  0.158982E-06 -0.259071E-07
  0.310976E+02  0.101903E+02  0.239687E-06 -0.341260E-08
  0.310976E+02  0.111608E+02  0.314173E-08  0.106493E-07
  0.310976E+02  0.121313E+02  0.103904E-07  0.143182E-07
  0.310976E+02  0.131018E+02  0.623975E-08  0.156680E-07
  0.310976E+02  0.140723E+02  0.389319E-08  0.112157E-07
  0.310976E+02  0.150429E+02  0.155510E-05 -0.985969E-07
  0.310976E+02  0.160134E+02  0.771269E-06 -0.177616E-06
  0.310976E+02  0.169839E+02  0.538303E-06 -0.155209E-06
  0.310976E+02  0.179544E+02  0.403484E-06 -0.970973E-07
  0.310976E+02  0.189249E+02  0.378696E-06 -0.930574E-07
  0.310976E+02  0.198954E+02  0.343565E-06 -0.520177E-07
  0.335854E+02  0.485036E+00  0.137850E-06  0.828823E-08
  0.335854E+02  0.145511E+01  0.186854E-06  0.126439E-07
  0.335854E+02  0.242518E+01  0.127656E-06  0.139900E-07
  0.335854E+02  0.339525E+01  0.419497E-07  0.142173E-07
  0.335854E+02  0.436532E+01  0.101516E-06  0.434026E-07
  0.335854E+02  0.533539E+01  0.235333E-06  0.661761E-07
  0.335854E+02  0.630546E+01  0.341200E-06  0.678047E-07
  0.335854E+02  0.727553E+01  0.448598E-06  0.501135E-07
  0.335854E+02  0.824561E+01  0.278158E-06  0.189512E-07
  0.335854E+02  0.921568E+01  0.140572E-06 -0.476108E-09
  0.335854E+02  0.101857E+02  0.189263E-06  0.284948E-08
  0.335854E+02  0.111558E+02  0.118422E-08  0.547310E-08
  0.335854E+02  0.121259E+02  0.642242E-08  0.654486E-08
  0.335854E+02  0.130960E+02  0.666588E-08  0.578580E-08
  0.335854E+02  0.140660E+02  0.625071E-08  0.801565E-08
  0.335854E+02  0.150361E+02  0.147960E-05 -0.216416E-07
  0.335854E+02  0.160062E+02  0.744366E-06 -0.861200E-07
  0.335854E+02  0.169762E+02  0.277754E-06 -0.841904E-07
  0.335854E+02  0.179463E+02  0.325433E-06 -0.833379E-07
  0.335854E+02  0.189164E+02  0.281387E-06 -0.776065E-07
  0.335854E+02  0.198865E+02  0.174995E-06 -0.370047E-07
  0.360732E+02  0.484847E+00  0.796426E-07  0.653508E-08
  0.360732E+02  0.145454E+01  0.140442E-06  0.245842E-07
  0.360732E+02  0.242423E+01  0.104312E-06  0.335484E-07
  0.360732E+02  0.339393E+01  0.950911E-07  0.310225E-07
  0.360732E+02  0.436362E+01  0.534195E-07  0.888196E-08
  0.360732E+02  0.533331E+01  0.199544E-06  0.313431E-07
  0.360732E+02  0.630301E+01  0.392529E-06  0.812022E-07
  0.360732E+02  0.727270E+01  0.378918E-06  0.871745E-07
  0.360732E+02  0.824239E+01  0.360586E-06  0.128095E-06
  0.360732E+02  0.921209E+01  0.258034E-06  0.817962E-07
  0.360732E+02  0.101818E+02  0.275596E-06  0.285022E-07
  0.360732E+02  0.111515E+02  0.103276E-08  0.107165E-07
  0.360732E+02  0.121212E+02  0.471392E-08  0.795739E-08
  0.360732E+02  0.130909E+02  0.224475E-07  0.794001E-08
  0.360732E+02  0.140606E+02  0.546546E-08  0.894271E-09
  0.360732E+02  0.150302E+02  0.143483E-05  0.105586E-07
  0.360732E+02  0.159999E+02  0.897075E-06  0.390753E-07
  0.360732E+02  0.169696E+02  0.313962E-06 -0.234972E-08
  0.360732E+02  0.179393E+02  0.297343E-06 -0.197818E-07
  0.360732E+02  0.189090E+02  0.130181E-06 -0.179624E-07
  0.360732E+02  0.198787E+02  0.750956E-07 -0.148770E-07
  0.385610E+02  0.484582E+00  0.598295E-07 -0.104867E-08
  0.385610E+02  0.145375E+01  0.106415E-06 -0.143680E-08
  0.385610E+02  0.242291E+01  0.950106E-07  0.395159E-08
  0.385610E+02  0.339208E+01  0.761658E-07  0.872760E-08
  0.385610E+02  0.436124E+01  0.165898E-06  0.779439E-08
  0.385610E+02  0.533041E+01  0.104634E-06  0.470774E-08
  0.385610E+02  0.629957E+01  0.227821E-06  0.411746E-07
  0.385610E+02  0.726874E+01  0.468405E-06  0.145455E-06
  0.385610E+02  0.823790E+01  0.356791E-06  0.153321E-06
  0.385610E+02  0.920707E+01  0.531540E-06  0.119655E-06
  0.385610E+02  0.101762E+02  0.350617E-06  0.325467E-07
  0.385610E+02  0.111454E+02  0.143515E-09  0.503196E-08
  0.385610E+02  0.121146E+02  0.338821E-08  0.125134E-07
  0.385610E+02  0.130837E+02  0.243941E-07  0.181293E-07
  0.385610E+02  0.140529E+02  0.615639E-07  0.143008E-07
  0.385610E+02  0.150221E+02  0.128355E-05  0.405383E-07
  0.385610E+02  0.159912E+02  0.697643E-06  0.985199E-07
  0.385610E+02  0.169604E+02  0.476443E-06  0.115998E-06
  0.385610E+02  0.179296E+02  0.403464E-06  0.548836E-07
  0.385610E+02  0.188987E+02  0.182485E-06  0.262823E-07
  0.385610E+02  0.198679E+02  0.803097E-07 -0.234804E-08
  0.410488E+02  0.484302E+00  0.140786E-06  0.417211E-09
  0.410488E+02  0.145291E+01  0.122090E-06 -0.737068E-08
  0.410488E+02  0.242151E+01  0.104129E-06 -0.142166E-07
  0.410488E+02  0.339011E+01  0.121208E-06 -0.196390E-07
  0.410488E+02  0.435872E+01  0.194139E-06 -0.531264E-08
  0.410488E+02  0.532732E+01  0.116689E-06  0.171682E-07
  0.410488E+02  0.629592E+01  0.186639E-06  0.308188E-07
  0.410488E+02  0.726453E+01  0.237171E-06  0.355458E-07
  0.410488E+02  0.823313E+01  0.440338E-06  0.770418E-07
  0.410488E+02  0.920173E+01  0.583624E-06  0.102541E-06
  0.410488E+02  0.101703E+02  0.626981E-06  0.683658E-07
  0.410488E+02  0.111389E+02  0.194114E-09  0.109858E-07
  0.410488E+02  0.121075E+02  0.112398E-08  0.603663E-08
  0.410488E+02  0.130761E+02  0.915505E-08  0.646435E-08
  0.410488E+02  0.140447E+02  0.242374E-07  0.124796E-07
  0.410488E+02  0.150134E+02  0.778630E-06  0.431402E-07
  0.410488E+02  0.159820E+02  0.505421E-06  0.530477E-07
  0.410488E+02  0.169506E+02  0.444185E-06  0.227154E-07
  0.410488E+02  0.179192E+02  0.400531E-06  0.282560E-07
  0.410488E+02  0.188878E+02  0.149298E-06  0.393662E-07
  0.410488E+02  0.198564E+02  0.256990E-06  0.183904E-07
  0.435366E+02  0.484142E+00  0.123264E-06 -0.811825E-09
  0.435366E+02  0.145242E+01  0.201939E-06  0.992457E-08
  0.435366E+02  0.242071E+01  0.169971E-06  0.345340E-08
  0.435366E+02  0.338899E+01  0.136642E-06 -0.810304E-08
  0.435366E+02  0.435727E+01  0.123803E-06  0.576870E-08
  0.435366E+02  0.532556E+01  0.113862E-06  0.142028E-07
  0.435366E+02  0.629384E+01  0.158122E-06  0.184105E-07
  0.435366E+02  0.726212E+01  0.300125E-06  0.195323E-07
  0.435366E+02  0.823041E+01  0.351903E-06  0.225259E-07
  0.435366E+02  0.919869E+01  0.424576E-06  0.333670E-07
  0.435366E+02  0.101670E+02  0.833964E-06  0.262855E-07
  0.435366E+02  0.111353E+02  0.511607E-09  0.749688E-08
  0.435366E+02  0.121035E+02  0.240429E-08  0.793867E-08
  0.435366E+02  0.130718E+02  0.864807E-08  0.968845E-08
  0.435366E+02  0.140401E+02  0.105552E-07  0.795384E-08
  0.435366E+02  0.150084E+02  0.751288E-06  0.155291E-07
  0.435366E+02  0.159767E+02  0.719167E-06  0.342712E-07
  0.435366E+02  0.169450E+02  0.506236E-06  0.261984E-07
  0.435366E+02  0.179132E+02  0.278070E-06  0.245905E-07
  0.435366E+02  0.188815E+02  0.220507E-06  0.700255E-08
  0.435366E+02  0.198498E+02  0.263847E-06 -0.144555E-07
  0.460244E+02  0.483697E+00  0.979075E-07 -0.442872E-08
  0.460244E+02  0.145109E+01  0.991991E-07 -0.386322E-09
  0.460244E+02  0.241848E+01  0.200936E-06  0.143519E-07
  0.460244E+02  0.338588E+01  0.156077E-06  0.140543E-07
  0.460244E+02  0.435327E+01  0.701265E-07  0.559043E-08
  0.460244E+02  0.532066E+01  0.138089E-06  0.726342E-08
  0.460244E+02  0.628806E+01  0.127513E-06  0.104000E-07
  0.460244E+02  0.725545E+01  0.263677E-06  0.221334E-07
  0.460244E+02  0.822285E+01  0.245877E-06  0.157324E-07
  0.460244E+02  0.919024E+01  0.513279E-06 -0.108998E-07
  0.460244E+02  0.101576E+02  0.784072E-06 -0.106110E-07
  0.460244E+02  0.111250E+02  0.547439E-09  0.160685E-07
  0.460244E+02  0.120924E+02  0.270066E-08  0.140194E-07
  0.460244E+02  0.130598E+02  0.660976E-08  0.107413E-07
  0.460244E+02  0.140272E+02  0.115630E-07  0.860642E-08
  0.460244E+02  0.149946E+02  0.803615E-06  0.428925E-08
  0.460244E+02  0.159620E+02  0.608169E-06  0.758186E-08
  0.460244E+02  0.169294E+02  0.478274E-06  0.805026E-08
  0.460244E+02  0.178968E+02  0.304456E-06 -0.300179E-08
  0.460244E+02  0.188642E+02  0.358363E-06 -0.220818E-07
  0.460244E+02  0.198316E+02  0.266469E-06 -0.290179E-07
  0.485122E+02  0.483285E+00  0.108483E-06  0.659900E-08
  0.485122E+02  0.144986E+01  0.952199E-07  0.291550E-08
  0.485122E+02  0.241643E+01  0.143423E-06  0.974067E-09
  0.485122E+02  0.338300E+01  0.115990E-06  0.316084E-08
  0.485122E+02  0.434957E+01  0.125730E-06 -0.570897E-08
  0.485122E+02  0.531614E+01  0.711458E-07 -0.848219E-08
  0.485122E+02  0.628271E+01  0.119281E-06 -0.539579E-08
  0.485122E+02  0.724928E+01  0.241922E-06 -0.107715E-07
  0.485122E+02  0.821585E+01  0.464430E-06 -0.261764E-07
  0.485122E+02  0.918242E+01  0.533411E-06 -0.541839E-07
  0.485122E+02  0.101490E+02  0.597101E-06 -0.323874E-07
  0.485122E+02  0.111156E+02  0.115891E-08  0.161781E-07
  0.485122E+02  0.120821E+02  0.360152E-08  0.114883E-07
  0.485122E+02  0.130487E+02  0.527883E-08  0.117519E-07
  0.485122E+02  0.140153E+02  0.125742E-07  0.156203E-07
  0.485122E+02  0.149818E+02  0.866438E-06  0.214631E-07
  0.485122E+02  0.159484E+02  0.578944E-06  0.800237E-08
  0.485122E+02  0.169150E+02  0.522243E-06 -0.158432E-07
  0.485122E+02  0.178816E+02  0.241201E-06 -0.250836E-07
  0.485122E+02  0.188481E+02  0.346645E-06 -0.257776E-07
  0.485122E+02  0.198147E+02  0.144169E-06 -0.127970E-07
  0.510000E+02  0.482825E+00  0.666032E-07  0.251529E-08
  0.510000E+02  0.144848E+01  0.153712E-06  0.935192E-08
  0.510000E+02  0.241413E+01  0.160860E-06  0.690954E-08
  0.510000E+02  0.337978E+01  0.177951E-06 -0.265392E-08
  0.510000E+02  0.434543E+01  0.155050E-06 -0.141217E-07
  0.510000E+02  0.531108E+01  0.997678E-07 -0.289953E-07
  0.510000E+02  0.627673E+01  0.171009E-06 -0.658929E-07
  0.510000E+02  0.724238E+01  0.236547E-06 -0.915101E-07
  0.510000E+02  0.820803E+01  0.328598E-06 -0.640188E-07
  0.510000E+02  0.917368E+01  0.587001E-06 -0.275271E-07
  0.510000E+02  0.101393E+02  0.360824E-06 -0.209385E-08
  0.510000E+02  0.111050E+02  0.205120E-09  0.422210E-08
  0.510000E+02  0.120706E+02  0.205324E-08  0.100894E-07
  0.510000E+02  0.130363E+02  0.263213E-08  0.103049E-07
  0.510000E+02  0.140019E+02  0.524833E-08  0.133121E-07
  0.510000E+02  0.149676E+02  0.734971E-06  0.560285E-07
  0.510000E+02  0.159332E+02  0.535696E-06  0.506248E-07
  0.510000E+02  0.168989E+02  0.481135E-06  0.285122E-07
  0.510000E+02  0.178645E+02  0.284406E-06  0.109809E-07
  0.510000E+02  0.188302E+02  0.172048E-06  0.104159E-07
  0.510000E+02  0.197958E+02  0.169865E-06  0.149281E-08
  0.534878E+02  0.482554E+00  0.128879E-06 -0.586381E-08
  0.534878E+02  0.144766E+01  0.124059E-06 -0.116108E-07
  0.534878E+02  0.241277E+01  0.216853E-06 -0.237716E-07
  0.534878E+02  0.337788E+01  0.211092E-06 -0.252561E-07
  0.534878E+02  0.434299E+01  0.230916E-06 -0.353928E-07
  0.534878E+02  0.530809E+01  0.252130E-06 -0.671245E-07
  0.534878E+02  0.627320E+01  0.261554E-06 -0.972949E-07
  0.534878E+02  0.723831E+01  0.187662E-06 -0.815363E-07
  0.534878E+02  0.820342E+01  0.228567E-06 -0.668128E-07
  0.534878E+02  0.916853E+01  0.323090E-06 -0.398110E-07
  0.534878E+02  0.101336E+02  0.302878E-06 -0.897147E-09
  0.534878E+02  0.110987E+02 -0.750211E-10  0.418683E-08
  0.534878E+02  0.120639E+02 -0.180278E-09  0.249583E-08
  0.534878E+02  0.130290E+02  0.331728E-09  0.460367E-08
  0.534878E+02  0.139941E+02  0.101733E-08  0.484931E-08
  0.534878E+02  0.149592E+02  0.467332E-06  0.349870E-07
  0.534878E+02  0.159243E+02  0.621519E-06  0.695677E-07
  0.534878E+02  0.168894E+02  0.449101E-06  0.513971E-07
  0.534878E+02  0.178545E+02  0.224523E-06  0.341521E-07
  0.534878E+02  0.188196E+02  0.157011E-06  0.171709E-07
  0.534878E+02  0.197847E+02  0.270288E-06 -0.771477E-08
  0.559756E+02  0.482423E+00  0.140493E-06 -0.453379E-08
  0.559756E+02  0.144727E+01  0.201112E-06 -0.264627E-07
  0.559756E+02  0.241211E+01  0.218043E-06 -0.503805E-07
  0.559756E+02  0.337696E+01  0.221420E-06 -0.795248E-07
  0.559756E+02  0.434180E+01  0.244338E-06 -0.814154E-07
  0.559756E+02  0.530665E+01  0.258368E-06 -0.710192E-07
  0.559756E+02  0.627150E+01  0.284075E-06 -0.555014E-07
  0.559756E+02  0.723634E+01  0.222312E-06 -0.692331E-07
  0.559756E+02  0.820119E+01  0.240974E-06 -0.786878E-07
  0.559756E+02  0.916603E+01  0.219164E-06 -0.455592E-07
  0.559756E+02  0.101309E+02  0.184449E-06 -0.156692E-07
  0.559756E+02  0.110957E+02  0.419378E-10  0.160259E-08
  0.559756E+02  0.120606E+02 -0.489853E-10  0.339118E-08
  0.559756E+02  0.130254E+02 -0.238920E-09  0.285868E-08
  0.559756E+02  0.139903E+02  0.184595E-09  0.243867E-08
  0.559756E+02  0.149551E+02  0.361258E-06  0.167516E-08
  0.559756E+02  0.159200E+02  0.323899E-06  0.194865E-07
  0.559756E+02  0.168848E+02  0.430270E-06  0.577082E-07
  0.559756E+02  0.178496E+02  0.246079E-06  0.460280E-07
  0.559756E+02  0.188145E+02  0.269447E-06 -0.399642E-08
  0.559756E+02  0.197793E+02  0.194354E-06 -0.260156E-07
  0.584634E+02  0.482239E+00  0.231659E-06 -0.226722E-07
  0.584634E+02  0.144672E+01  0.270827E-06 -0.533406E-07
  0.584634E+02  0.241120E+01  0.352465E-06 -0.810189E-07
  0.584634E+02  0.337567E+01  0.184948E-06 -0.745975E-07
  0.584634E+02  0.434015E+01  0.204899E-06 -0.648329E-07
  0.584634E+02  0.530463E+01  0.192550E-06 -0.440603E-07
  0.584634E+02  0.626911E+01  0.217894E-06 -0.396783E-07
  0.584634E+02  0.723359E+01  0.286122E-06 -0.353965E-07
  0.584634E+02  0.819807E+01  0.193191E-06 -0.336195E-07
  0.584634E+02  0.916254E+01  0.197050E-06 -0.330913E-07
  0.584634E+02  0.101270E+02  0.145021E-06 -0.934436E-08
  0.584634E+02  0.110915E+02 -0.488852E-10  0.189877E-08
  0.584634E+02  0.120560E+02 -0.275417E-09  0.179663E-08
  0.584634E+02  0.130205E+02 -0.247786E-09  0.198553E-08
  0.584634E+02  0.139849E+02  0.665053E-10  0.173825E-08
  0.584634E+02  0.149494E+02  0.307562E-06  0.151638E-07
  0.584634E+02  0.159139E+02  0.258204E-06  0.942289E-08
  0.584634E+02  0.168784E+02  0.336027E-06  0.136200E-07
  0.584634E+02  0.178428E+02  0.326711E-06  0.228154E-07
  0.584634E+02  0.188073E+02  0.450024E-06  0.302860E-07
  0.584634E+02  0.197718E+02  0.207381E-06  0.517119E-08
  0.609512E+02  0.481919E+00  0.359050E-06 -0.165845E-07
  0.609512E+02  0.144576E+01  0.286650E-06 -0.240867E-07
  0.609512E+02  0.240960E+01  0.286225E-06 -0.695979E-08
  0.609512E+02  0.337343E+01  0.211292E-06 -0.153596E-07
  0.609512E+02  0.433727E+01  0.159355E-06 -0.329467E-07
  0.609512E+02  0.530111E+01  0.191114E-06 -0.441077E-07
  0.609512E+02  0.626495E+01  0.229635E-06 -0.274818E-07
  0.609512E+02  0.722879E+01  0.230458E-06 -0.126197E-07
  0.609512E+02  0.819262E+01  0.270944E-06 -0.862990E-08
  0.609512E+02  0.915646E+01  0.157245E-06 -0.230004E-08
  0.609512E+02  0.101203E+02  0.105429E-06  0.428405E-09
  0.609512E+02  0.110841E+02  0.288994E-09  0.331934E-08
  0.609512E+02  0.120480E+02  0.609950E-09  0.318088E-08
  0.609512E+02  0.130118E+02  0.767308E-09  0.311083E-08
  0.609512E+02  0.139757E+02  0.498068E-09  0.144461E-08
  0.609512E+02  0.149395E+02  0.239357E-06  0.890959E-09
  0.609512E+02  0.159033E+02  0.396352E-06  0.128353E-07
  0.609512E+02  0.168672E+02  0.250337E-06  0.205314E-07
  0.609512E+02  0.178310E+02  0.340431E-06  0.523280E-07
  0.609512E+02  0.187948E+02  0.341268E-06  0.546017E-07