title="2d vectors yz, t=    0.150E+03"
variables="y","z","vy","vz"
zone i=    21, j=    41, T="   0.150E+03"
zone i=    21, j=    41, T="   0.300E+03"
zone i=    21, j=    41, T="   0.450E+03"
zone i=    21, j=    41, T="   0.600E+03"
zone i=    21, j=    41, T="   0.750E+03"
zone i=    21, j=    41, T="   0.900E+03"
zone i=    21, j=    41, T="   0.105E+04"
zone i=    21, j=    41, T="   0.120E+04"
zone i=    21, j=    41, T="   0.135E+04"
zone i=    21, j=    41, T="   0.150E+04"
zone i=    21, j=    41, T="   0.165E+04"
zone i=    21, j=    41, T="   0.180E+04"
zone i=    21, j=    41, T="   0.195E+04"
zone i=    21, j=    41, T="   0.210E+04"
zone i=    21, j=    41, T="   0.225E+04"
zone i=    21, j=    41, T="   0.240E+04"
zone i=    21, j=    41, T="   0.255E+04"
zone i=    21, j=    41, T="   0.270E+04"
zone i=    21, j=    41, T="   0.285E+04"
zone i=    21, j=    41, T="   0.300E+04"
zone i=    21, j=    41, T="   0.315E+04"
zone i=    21, j=    41, T="   0.330E+04"
zone i=    21, j=    41, T="   0.345E+04"
zone i=    21, j=    41, T="   0.360E+04"
zone i=    21, j=    41, T="   0.375E+04"
zone i=    21, j=    41, T="   0.390E+04"
zone i=    21, j=    41, T="   0.405E+04"
zone i=    21, j=    41, T="   0.420E+04"
zone i=    21, j=    41, T="   0.435E+04"
zone i=    21, j=    41, T="   0.450E+04"
zone i=    21, j=    41, T="   0.465E+04"
