variables="x","h","c"
zone i=     42,T= "1dxhc;t= 0.1500E+03y,z:   1   1"
    0.00000E+00    0.50000E+00    0.00000E+00
    0.24878E+01    0.49533E+00    0.38841E-18
    0.49756E+01    0.49258E+00    0.21466E-17
    0.74634E+01    0.48994E+00    0.70817E-17
    0.99512E+01    0.48683E+00    0.13367E-16
    0.12439E+02    0.48243E+00    0.30604E-16
    0.14927E+02    0.47840E+00    0.88064E-16
    0.17415E+02    0.46627E+00    0.19093E-15
    0.19902E+02    0.45530E+00    0.58247E-15
    0.22390E+02    0.44564E+00    0.10475E-14
    0.24878E+02    0.43927E+00    0.15872E-14
    0.27366E+02    0.43582E+00    0.94658E-15
    0.29854E+02    0.43316E+00    0.13100E-15
    0.32341E+02    0.43047E+00    0.13084E-14
    0.34829E+02    0.42690E+00    0.20215E-14
    0.37317E+02    0.42414E+00    0.52733E-14
    0.39805E+02    0.41932E+00    0.22537E-13
    0.42293E+02    0.41182E+00    0.16288E-12
    0.44780E+02    0.40430E+00    0.15839E-11
    0.47268E+02    0.39821E+00    0.14533E-10
    0.49756E+02    0.39452E+00    0.81734E-10
    0.52244E+02    0.39181E+00    0.38963E-09
    0.54732E+02    0.38892E+00    0.13364E-08
    0.57220E+02    0.38364E+00    0.64493E-08
    0.59707E+02    0.37334E+00    0.32781E-07
    0.62195E+02    0.36441E+00    0.10379E-06
    0.64683E+02    0.34954E+00    0.29101E-06
    0.67171E+02    0.33799E+00    0.88116E-06
    0.69659E+02    0.33383E+00    0.26733E-05
    0.72146E+02    0.32799E+00    0.98166E-05
    0.74634E+02    0.31489E+00    0.25460E-04
    0.77122E+02    0.30346E+00    0.64984E-04
    0.79610E+02    0.29608E+00    0.17873E-03
    0.82098E+02    0.29037E+00    0.42147E-03
    0.84585E+02    0.28858E+00    0.86242E-03
    0.87073E+02    0.29279E+00    0.37272E-02
    0.89561E+02    0.30510E+00    0.51612E-01
    0.92049E+02    0.31362E+00    0.70270E-01
    0.94537E+02    0.32531E+00    0.15075E+00
    0.97024E+02    0.35256E+00    0.40723E+00
    0.99512E+02    0.38132E+00    0.73564E+00
    0.10200E+03    0.40011E+00    0.10000E+01
zone i=     42,T= "1dxhc;t= 0.1500E+03y,z:   1  12"
    0.00000E+00    0.50000E+00    0.00000E+00
    0.24878E+01    0.49640E+00   -0.65196E-21
    0.49756E+01    0.49532E+00   -0.25303E-20
    0.74634E+01    0.49298E+00   -0.73482E-20
    0.99512E+01    0.48995E+00   -0.63960E-19
    0.12439E+02    0.48512E+00   -0.31232E-18
    0.14927E+02    0.47852E+00   -0.12128E-17
    0.17415E+02    0.47001E+00   -0.29029E-17
    0.19902E+02    0.46005E+00   -0.58970E-17
    0.22390E+02    0.44872E+00   -0.52650E-16
    0.24878E+02    0.43887E+00   -0.74024E-15
    0.27366E+02    0.43219E+00   -0.43690E-14
    0.29854E+02    0.42751E+00   -0.41611E-13
    0.32341E+02    0.42455E+00   -0.18437E-12
    0.34829E+02    0.42136E+00   -0.69941E-12
    0.37317E+02    0.41760E+00   -0.38492E-11
    0.39805E+02    0.41322E+00   -0.67285E-11
    0.42293E+02    0.41066E+00   -0.53048E-11
    0.44780E+02    0.40768E+00   -0.47802E-11
    0.47268E+02    0.40368E+00   -0.92800E-11
    0.49756E+02    0.40143E+00   -0.18421E-10
    0.52244E+02    0.39501E+00   -0.58689E-10
    0.54732E+02    0.38973E+00   -0.13859E-09
    0.57220E+02    0.38264E+00   -0.11843E-09
    0.59707E+02    0.37561E+00   -0.57090E-09
    0.62195E+02    0.36712E+00   -0.14585E-08
    0.64683E+02    0.34973E+00   -0.72814E-08
    0.67171E+02    0.33743E+00   -0.21217E-07
    0.69659E+02    0.32884E+00   -0.37163E-07
    0.72146E+02    0.31432E+00   -0.88663E-06
    0.74634E+02    0.30040E+00   -0.26206E-05
    0.77122E+02    0.28342E+00   -0.11280E-04
    0.79610E+02    0.27753E+00   -0.42852E-04
    0.82098E+02    0.27211E+00   -0.12654E-03
    0.84585E+02    0.26792E+00   -0.49811E-03
    0.87073E+02    0.25936E+00    0.24912E-02
    0.89561E+02    0.24985E+00    0.16034E-01
    0.92049E+02    0.23206E+00    0.37323E-01
    0.94537E+02    0.22126E+00    0.15826E+00
    0.97024E+02    0.21201E+00    0.21630E+00
    0.99512E+02    0.18577E+00    0.41707E+00
    0.10200E+03    0.16004E+00    0.10000E+01
zone i=     42,T= "1dxhc;t= 0.1500E+03y,z:   1  22"
    0.00000E+00    0.49786E+00   -0.91692E-14
    0.24878E+01    0.48957E+00   -0.18704E-13
    0.49756E+01    0.48334E+00   -0.45772E-13
    0.74634E+01    0.47896E+00   -0.49085E-13
    0.99512E+01    0.47534E+00   -0.64614E-13
    0.12439E+02    0.47253E+00   -0.68820E-13
    0.14927E+02    0.46052E+00   -0.54547E-13
    0.17415E+02    0.44084E+00   -0.47800E-13
    0.19902E+02    0.42556E+00   -0.58871E-14
    0.22390E+02    0.41280E+00    0.11922E-12
    0.24878E+02    0.40735E+00    0.35251E-12
    0.27366E+02    0.40392E+00    0.15707E-11
    0.29854E+02    0.39859E+00    0.10506E-10
    0.32341E+02    0.38917E+00    0.42087E-10
    0.34829E+02    0.38018E+00    0.13861E-09
    0.37317E+02    0.36606E+00    0.36692E-09
    0.39805E+02    0.35316E+00    0.79054E-09
    0.42293E+02    0.31715E+00    0.16248E-08
    0.44780E+02    0.29973E+00    0.30766E-08
    0.47268E+02    0.28493E+00    0.59216E-08
    0.49756E+02    0.27450E+00    0.86600E-08
    0.52244E+02    0.26100E+00    0.21337E-07
    0.54732E+02    0.24738E+00    0.31581E-07
    0.57220E+02    0.23555E+00    0.58512E-07
    0.59707E+02    0.22099E+00    0.13519E-06
    0.62195E+02    0.20415E+00    0.19610E-06
    0.64683E+02    0.19889E+00    0.30609E-06
    0.67171E+02    0.18966E+00    0.39462E-06
    0.69659E+02    0.17849E+00    0.83971E-06
    0.72146E+02    0.16819E+00    0.17009E-05
    0.74634E+02    0.15945E+00    0.29013E-05
    0.77122E+02    0.15137E+00    0.43037E-06
    0.79610E+02    0.13677E+00    0.26576E-05
    0.82098E+02    0.12539E+00   -0.42814E-05
    0.84585E+02    0.10290E+00   -0.31955E-05
    0.87073E+02    0.81855E-01   -0.78579E-05
    0.89561E+02    0.72871E-01   -0.83608E-05
    0.92049E+02    0.62250E-01   -0.76992E-05
    0.94537E+02    0.54408E-01   -0.48869E-04
    0.97024E+02    0.41844E-01   -0.14220E-03
    0.99512E+02    0.24296E-01   -0.33398E-03
    0.10200E+03    0.57016E-02   -0.84083E-03
zone i=     42,T= "1dxhc;t= 0.3000E+03y,z:   1   1"
    0.00000E+00    0.50000E+00    0.00000E+00
    0.24878E+01    0.49533E+00    0.15800E-15
    0.49756E+01    0.49257E+00    0.74430E-15
    0.74634E+01    0.48993E+00    0.21547E-14
    0.99512E+01    0.48681E+00    0.38493E-14
    0.12439E+02    0.48241E+00    0.82199E-14
    0.14927E+02    0.47838E+00    0.20919E-13
    0.17415E+02    0.46623E+00    0.41502E-13
    0.19902E+02    0.45525E+00    0.11103E-12
    0.22390E+02    0.44559E+00    0.18562E-12
    0.24878E+02    0.43921E+00    0.29107E-12
    0.27366E+02    0.43576E+00    0.21760E-12
    0.29854E+02    0.43309E+00    0.95805E-13
    0.32341E+02    0.43041E+00    0.42852E-12
    0.34829E+02    0.42683E+00    0.72817E-12
    0.37317E+02    0.42407E+00    0.16874E-11
    0.39805E+02    0.41926E+00    0.55373E-11
    0.42293E+02    0.41175E+00    0.28837E-10
    0.44780E+02    0.40424E+00    0.19427E-09
    0.47268E+02    0.39816E+00    0.12638E-08
    0.49756E+02    0.39448E+00    0.53065E-08
    0.52244E+02    0.39178E+00    0.19524E-07
    0.54732E+02    0.38890E+00    0.52326E-07
    0.57220E+02    0.38366E+00    0.19437E-06
    0.59707E+02    0.37345E+00    0.72962E-06
    0.62195E+02    0.36462E+00    0.19029E-05
    0.64683E+02    0.34996E+00    0.50735E-05
    0.67171E+02    0.33861E+00    0.15205E-04
    0.69659E+02    0.33459E+00    0.47370E-04
    0.72146E+02    0.32906E+00    0.15661E-03
    0.74634E+02    0.31692E+00    0.45462E-03
    0.77122E+02    0.30681E+00    0.12273E-02
    0.79610E+02    0.30118E+00    0.28114E-02
    0.82098E+02    0.29942E+00    0.40809E-02
    0.84585E+02    0.30603E+00    0.36378E-01
    0.87073E+02    0.31644E+00    0.52020E-01
    0.89561E+02    0.33221E+00    0.16270E+00
    0.92049E+02    0.34088E+00    0.23022E+00
    0.94537E+02    0.35084E+00    0.32378E+00
    0.97024E+02    0.37065E+00    0.53644E+00
    0.99512E+02    0.39091E+00    0.77416E+00
    0.10200E+03    0.40011E+00    0.10000E+01
zone i=     42,T= "1dxhc;t= 0.3000E+03y,z:   1  12"
    0.00000E+00    0.50000E+00    0.00000E+00
    0.24878E+01    0.49639E+00   -0.39217E-18
    0.49756E+01    0.49531E+00   -0.12122E-17
    0.74634E+01    0.49297E+00   -0.27791E-17
    0.99512E+01    0.48994E+00   -0.18778E-16
    0.12439E+02    0.48511E+00   -0.68351E-16
    0.14927E+02    0.47850E+00   -0.20180E-15
    0.17415E+02    0.46997E+00   -0.37922E-15
    0.19902E+02    0.46001E+00   -0.55817E-15
    0.22390E+02    0.44867E+00   -0.39337E-14
    0.24878E+02    0.43882E+00   -0.37370E-13
    0.27366E+02    0.43213E+00   -0.14904E-12
    0.29854E+02    0.42745E+00   -0.10201E-11
    0.32341E+02    0.42448E+00   -0.32718E-11
    0.34829E+02    0.42130E+00   -0.94501E-11
    0.37317E+02    0.41753E+00   -0.39459E-10
    0.39805E+02    0.41316E+00   -0.64144E-10
    0.42293E+02    0.41059E+00   -0.63184E-10
    0.44780E+02    0.40761E+00   -0.82718E-10
    0.47268E+02    0.40362E+00   -0.17716E-09
    0.49756E+02    0.40137E+00   -0.30654E-09
    0.52244E+02    0.39497E+00   -0.94551E-09
    0.54732E+02    0.38970E+00   -0.21074E-08
    0.57220E+02    0.38263E+00   -0.19436E-08
    0.59707E+02    0.37564E+00   -0.64374E-08
    0.62195E+02    0.36720E+00   -0.12104E-07
    0.64683E+02    0.34989E+00   -0.41585E-07
    0.67171E+02    0.33761E+00   -0.93799E-07
    0.69659E+02    0.32898E+00   -0.29366E-06
    0.72146E+02    0.31420E+00   -0.16455E-05
    0.74634E+02    0.29991E+00   -0.79518E-06
    0.77122E+02    0.28222E+00   -0.16094E-04
    0.79610E+02    0.27581E+00   -0.90440E-04
    0.82098E+02    0.26870E+00   -0.63725E-03
    0.84585E+02    0.26241E+00   -0.11609E-02
    0.87073E+02    0.25152E+00    0.56658E-02
    0.89561E+02    0.24106E+00    0.31454E-01
    0.92049E+02    0.22382E+00    0.70599E-01
    0.94537E+02    0.21430E+00    0.19574E+00
    0.97024E+02    0.20636E+00    0.24266E+00
    0.99512E+02    0.18314E+00    0.44058E+00
    0.10200E+03    0.16004E+00    0.10000E+01
zone i=     42,T= "1dxhc;t= 0.3000E+03y,z:   1  22"
    0.00000E+00    0.49786E+00   -0.19414E-12
    0.24878E+01    0.48956E+00   -0.36612E-12
    0.49756E+01    0.48333E+00   -0.87597E-12
    0.74634E+01    0.47895E+00   -0.10034E-11
    0.99512E+01    0.47532E+00   -0.13476E-11
    0.12439E+02    0.47251E+00   -0.13060E-11
    0.14927E+02    0.46049E+00   -0.75609E-12
    0.17415E+02    0.44080E+00    0.76155E-12
    0.19902E+02    0.42551E+00    0.23584E-11
    0.22390E+02    0.41274E+00    0.95739E-11
    0.24878E+02    0.40729E+00    0.20489E-10
    0.27366E+02    0.40386E+00    0.61577E-10
    0.29854E+02    0.39852E+00    0.21951E-09
    0.32341E+02    0.38909E+00    0.53432E-09
    0.34829E+02    0.38010E+00    0.12150E-08
    0.37317E+02    0.36597E+00    0.24360E-08
    0.39805E+02    0.35306E+00    0.43990E-08
    0.42293E+02    0.31702E+00    0.77169E-08
    0.44780E+02    0.29958E+00    0.12833E-07
    0.47268E+02    0.28478E+00    0.21783E-07
    0.49756E+02    0.27434E+00    0.29706E-07
    0.52244E+02    0.26083E+00    0.64150E-07
    0.54732E+02    0.24719E+00    0.85927E-07
    0.57220E+02    0.23535E+00    0.14214E-06
    0.59707E+02    0.22078E+00    0.27492E-06
    0.62195E+02    0.20392E+00    0.36570E-06
    0.64683E+02    0.19866E+00    0.53296E-06
    0.67171E+02    0.18941E+00    0.65173E-06
    0.69659E+02    0.17823E+00    0.12802E-05
    0.72146E+02    0.16792E+00    0.24637E-05
    0.74634E+02    0.15918E+00    0.39487E-05
    0.77122E+02    0.15109E+00    0.86424E-07
    0.79610E+02    0.13648E+00    0.29931E-05
    0.82098E+02    0.12511E+00   -0.66370E-05
    0.84585E+02    0.10264E+00   -0.70687E-05
    0.87073E+02    0.81622E-01   -0.13278E-04
    0.89561E+02    0.72654E-01   -0.14256E-04
    0.92049E+02    0.62055E-01   -0.15649E-04
    0.94537E+02    0.54230E-01   -0.54477E-04
    0.97024E+02    0.41700E-01   -0.14100E-03
    0.99512E+02    0.24211E-01   -0.34077E-03
    0.10200E+03    0.56812E-02   -0.84937E-03
zone i=     42,T= "1dxhc;t= 0.4500E+03y,z:   1   1"
    0.00000E+00    0.50000E+00    0.00000E+00
    0.24878E+01    0.49533E+00    0.64470E-14
    0.49756E+01    0.49258E+00    0.27076E-13
    0.74634E+01    0.48994E+00    0.71556E-13
    0.99512E+01    0.48682E+00    0.12295E-12
    0.12439E+02    0.48242E+00    0.24955E-12
    0.14927E+02    0.47840E+00    0.58142E-12
    0.17415E+02    0.46626E+00    0.10850E-11
    0.19902E+02    0.45529E+00    0.26421E-11
    0.22390E+02    0.44564E+00    0.42091E-11
    0.24878E+02    0.43927E+00    0.66790E-11
    0.27366E+02    0.43582E+00    0.58183E-11
    0.29854E+02    0.43315E+00    0.41743E-11
    0.32341E+02    0.43047E+00    0.13937E-10
    0.34829E+02    0.42690E+00    0.23771E-10
    0.37317E+02    0.42415E+00    0.50282E-10
    0.39805E+02    0.41934E+00    0.13522E-09
    0.42293E+02    0.41185E+00    0.54964E-09
    0.44780E+02    0.40435E+00    0.27998E-08
    0.47268E+02    0.39829E+00    0.14099E-07
    0.49756E+02    0.39463E+00    0.48728E-07
    0.52244E+02    0.39194E+00    0.15273E-06
    0.54732E+02    0.38907E+00    0.36131E-06
    0.57220E+02    0.38388E+00    0.11784E-05
    0.59707E+02    0.37378E+00    0.38326E-05
    0.62195E+02    0.36506E+00    0.94546E-05
    0.64683E+02    0.35062E+00    0.26878E-04
    0.67171E+02    0.33951E+00    0.86315E-04
    0.69659E+02    0.33565E+00    0.27192E-03
    0.72146E+02    0.33048E+00    0.83558E-03
    0.74634E+02    0.31954E+00    0.24529E-02
    0.77122E+02    0.31116E+00    0.71911E-02
    0.79610E+02    0.30848E+00    0.45848E-02
    0.82098E+02    0.31152E+00    0.62027E-01
    0.84585E+02    0.32294E+00    0.10704E+00
    0.87073E+02    0.33455E+00    0.13155E+00
    0.89561E+02    0.34942E+00    0.27087E+00
    0.92049E+02    0.35703E+00    0.36796E+00
    0.94537E+02    0.36524E+00    0.44594E+00
    0.97024E+02    0.38032E+00    0.60189E+00
    0.99512E+02    0.39594E+00    0.79741E+00
    0.10200E+03    0.40011E+00    0.10000E+01
zone i=     42,T= "1dxhc;t= 0.4500E+03y,z:   1  12"
    0.00000E+00    0.50000E+00    0.00000E+00
    0.24878E+01    0.49639E+00   -0.14092E-16
    0.49756E+01    0.49532E+00   -0.36632E-16
    0.74634E+01    0.49297E+00   -0.74170E-16
    0.99512E+01    0.48995E+00   -0.41293E-15
    0.12439E+02    0.48512E+00   -0.12263E-14
    0.14927E+02    0.47851E+00   -0.30278E-14
    0.17415E+02    0.47000E+00   -0.50171E-14
    0.19902E+02    0.46005E+00   -0.59052E-14
    0.22390E+02    0.44871E+00   -0.35562E-13
    0.24878E+02    0.43887E+00   -0.24751E-12
    0.27366E+02    0.43219E+00   -0.77056E-12
    0.29854E+02    0.42752E+00   -0.41278E-11
    0.32341E+02    0.42455E+00   -0.10437E-10
    0.34829E+02    0.42137E+00   -0.24531E-10
    0.37317E+02    0.41761E+00   -0.79680E-10
    0.39805E+02    0.41325E+00   -0.10596E-09
    0.42293E+02    0.41069E+00   -0.12565E-09
    0.44780E+02    0.40772E+00   -0.28387E-09
    0.47268E+02    0.40373E+00   -0.62168E-09
    0.49756E+02    0.40149E+00   -0.10367E-08
    0.52244E+02    0.39511E+00   -0.32761E-08
    0.54732E+02    0.38986E+00   -0.71310E-08
    0.57220E+02    0.38283E+00   -0.72919E-08
    0.59707E+02    0.37588E+00   -0.81378E-08
    0.62195E+02    0.36749E+00   -0.99400E-08
    0.64683E+02    0.35025E+00    0.36716E-08
    0.67171E+02    0.33796E+00    0.28971E-07
    0.69659E+02    0.32925E+00   -0.57663E-06
    0.72146E+02    0.31409E+00    0.67199E-05
    0.74634E+02    0.29930E+00    0.19949E-04
    0.77122E+02    0.28068E+00    0.50733E-04
    0.79610E+02    0.27362E+00   -0.24348E-03
    0.82098E+02    0.26482E+00   -0.11238E-02
    0.84585E+02    0.25707E+00   -0.81276E-03
    0.87073E+02    0.24535E+00    0.98250E-02
    0.89561E+02    0.23504E+00    0.41362E-01
    0.92049E+02    0.21894E+00    0.87845E-01
    0.94537E+02    0.21030E+00    0.21463E+00
    0.97024E+02    0.20311E+00    0.25776E+00
    0.99512E+02    0.18159E+00    0.45319E+00
    0.10200E+03    0.16004E+00    0.10000E+01
zone i=     42,T= "1dxhc;t= 0.4500E+03y,z:   1  22"
    0.00000E+00    0.49786E+00   -0.78440E-12
    0.24878E+01    0.48955E+00   -0.14223E-11
    0.49756E+01    0.48332E+00   -0.33816E-11
    0.74634E+01    0.47894E+00   -0.40225E-11
    0.99512E+01    0.47531E+00   -0.54450E-11
    0.12439E+02    0.47250E+00   -0.50037E-11
    0.14927E+02    0.46048E+00   -0.21188E-11
    0.17415E+02    0.44077E+00    0.62363E-11
    0.19902E+02    0.42547E+00    0.14132E-10
    0.22390E+02    0.41270E+00    0.51170E-10
    0.24878E+02    0.40725E+00    0.98761E-10
    0.27366E+02    0.40382E+00    0.25658E-09
    0.29854E+02    0.39848E+00    0.68078E-09
    0.32341E+02    0.38904E+00    0.13298E-08
    0.34829E+02    0.38004E+00    0.25724E-08
    0.37317E+02    0.36590E+00    0.46126E-08
    0.39805E+02    0.35299E+00    0.77688E-08
    0.42293E+02    0.31692E+00    0.12842E-07
    0.44780E+02    0.29947E+00    0.20355E-07
    0.47268E+02    0.28465E+00    0.32992E-07
    0.49756E+02    0.27421E+00    0.43530E-07
    0.52244E+02    0.26068E+00    0.89224E-07
    0.54732E+02    0.24704E+00    0.11492E-06
    0.57220E+02    0.23519E+00    0.18191E-06
    0.59707E+02    0.22060E+00    0.33470E-06
    0.62195E+02    0.20372E+00    0.42957E-06
    0.64683E+02    0.19846E+00    0.59482E-06
    0.67171E+02    0.18920E+00    0.67941E-06
    0.69659E+02    0.17801E+00    0.12696E-05
    0.72146E+02    0.16769E+00    0.24969E-05
    0.74634E+02    0.15894E+00    0.39295E-05
    0.77122E+02    0.15085E+00   -0.62642E-06
    0.79610E+02    0.13624E+00    0.21261E-05
    0.82098E+02    0.12486E+00   -0.82124E-05
    0.84585E+02    0.10242E+00   -0.10003E-04
    0.87073E+02    0.81429E-01   -0.18267E-04
    0.89561E+02    0.72476E-01   -0.19183E-04
    0.92049E+02    0.61895E-01   -0.18726E-04
    0.94537E+02    0.54085E-01   -0.57563E-04
    0.97024E+02    0.41583E-01   -0.12810E-03
    0.99512E+02    0.24143E-01   -0.35254E-03
    0.10200E+03    0.56652E-02   -0.85735E-03
zone i=     42,T= "1dxhc;t= 0.6000E+03y,z:   1   1"
    0.00000E+00    0.50000E+00    0.00000E+00
    0.24878E+01    0.49534E+00    0.77351E-13
    0.49756E+01    0.49259E+00    0.29786E-12
    0.74634E+01    0.48995E+00    0.73593E-12
    0.99512E+01    0.48684E+00    0.12358E-11
    0.12439E+02    0.48245E+00    0.24246E-11
    0.14927E+02    0.47843E+00    0.52918E-11
    0.17415E+02    0.46631E+00    0.95028E-11
    0.19902E+02    0.45535E+00    0.21606E-10
    0.22390E+02    0.44571E+00    0.33422E-10
    0.24878E+02    0.43936E+00    0.53778E-10
    0.27366E+02    0.43591E+00    0.53651E-10
    0.29854E+02    0.43325E+00    0.52617E-10
    0.32341E+02    0.43057E+00    0.14637E-09
    0.34829E+02    0.42701E+00    0.24820E-09
    0.37317E+02    0.42426E+00    0.49237E-09
    0.39805E+02    0.41946E+00    0.11482E-08
    0.42293E+02    0.41199E+00    0.39071E-08
    0.44780E+02    0.40451E+00    0.16309E-07
    0.47268E+02    0.39847E+00    0.68977E-07
    0.49756E+02    0.39482E+00    0.21107E-06
    0.52244E+02    0.39214E+00    0.59964E-06
    0.54732E+02    0.38930E+00    0.13300E-05
    0.57220E+02    0.38414E+00    0.39990E-05
    0.59707E+02    0.37415E+00    0.11762E-04
    0.62195E+02    0.36554E+00    0.27779E-04
    0.64683E+02    0.35131E+00    0.83094E-04
    0.67171E+02    0.34044E+00    0.27432E-03
    0.69659E+02    0.33674E+00    0.83194E-03
    0.72146E+02    0.33195E+00    0.23346E-02
    0.74634E+02    0.32219E+00    0.58921E-02
    0.77122E+02    0.31634E+00    0.10200E-01
    0.79610E+02    0.31712E+00    0.65503E-01
    0.82098E+02    0.32342E+00    0.12049E+00
    0.84585E+02    0.33587E+00    0.18990E+00
    0.87073E+02    0.34673E+00    0.22106E+00
    0.89561E+02    0.36015E+00    0.36913E+00
    0.92049E+02    0.36685E+00    0.47213E+00
    0.94537E+02    0.37384E+00    0.53309E+00
    0.97024E+02    0.38604E+00    0.64797E+00
    0.99512E+02    0.39894E+00    0.81882E+00
    0.10200E+03    0.40011E+00    0.10000E+01
zone i=     42,T= "1dxhc;t= 0.6000E+03y,z:   1  12"
    0.00000E+00    0.50000E+00    0.00000E+00
    0.24878E+01    0.49640E+00   -0.13482E-15
    0.49756E+01    0.49532E+00   -0.29472E-15
    0.74634E+01    0.49298E+00   -0.57306E-15
    0.99512E+01    0.48996E+00   -0.26871E-14
    0.12439E+02    0.48514E+00   -0.67920E-14
    0.14927E+02    0.47854E+00   -0.14547E-13
    0.17415E+02    0.47004E+00   -0.22690E-13
    0.19902E+02    0.46010E+00   -0.22528E-13
    0.22390E+02    0.44878E+00   -0.11486E-12
    0.24878E+02    0.43896E+00   -0.56704E-12
    0.27366E+02    0.43228E+00   -0.14353E-11
    0.29854E+02    0.42762E+00   -0.58174E-11
    0.32341E+02    0.42466E+00   -0.10196E-10
    0.34829E+02    0.42149E+00   -0.14493E-10
    0.37317E+02    0.41774E+00   -0.11035E-10
    0.39805E+02    0.41338E+00    0.17125E-09
    0.42293E+02    0.41083E+00    0.22502E-09
    0.44780E+02    0.40786E+00   -0.39172E-09
    0.47268E+02    0.40389E+00   -0.58471E-09
    0.49756E+02    0.40166E+00   -0.12290E-08
    0.52244E+02    0.39530E+00   -0.50648E-08
    0.54732E+02    0.39007E+00   -0.11311E-07
    0.57220E+02    0.38307E+00   -0.12074E-07
    0.59707E+02    0.37616E+00    0.55763E-07
    0.62195E+02    0.36781E+00    0.11369E-06
    0.64683E+02    0.35062E+00    0.48639E-06
    0.67171E+02    0.33832E+00    0.10909E-05
    0.69659E+02    0.32954E+00    0.68025E-06
    0.72146E+02    0.31398E+00    0.36232E-04
    0.74634E+02    0.29867E+00    0.61935E-04
    0.77122E+02    0.27913E+00    0.19997E-03
    0.79610E+02    0.27148E+00   -0.69923E-03
    0.82098E+02    0.26144E+00   -0.13036E-02
    0.84585E+02    0.25302E+00    0.43419E-03
    0.87073E+02    0.24127E+00    0.13814E-01
    0.89561E+02    0.23131E+00    0.47822E-01
    0.92049E+02    0.21600E+00    0.96867E-01
    0.94537E+02    0.20788E+00    0.22446E+00
    0.97024E+02    0.20111E+00    0.26636E+00
    0.99512E+02    0.18063E+00    0.46001E+00
    0.10200E+03    0.16004E+00    0.10000E+01
zone i=     42,T= "1dxhc;t= 0.6000E+03y,z:   1  22"
    0.00000E+00    0.49786E+00   -0.16632E-11
    0.24878E+01    0.48955E+00   -0.29405E-11
    0.49756E+01    0.48332E+00   -0.69787E-11
    0.74634E+01    0.47894E+00   -0.84881E-11
    0.99512E+01    0.47530E+00   -0.11581E-10
    0.12439E+02    0.47249E+00   -0.10367E-10
    0.14927E+02    0.46046E+00   -0.34437E-11
    0.17415E+02    0.44076E+00    0.16381E-10
    0.19902E+02    0.42545E+00    0.34825E-10
    0.22390E+02    0.41268E+00    0.12310E-09
    0.24878E+02    0.40722E+00    0.22797E-09
    0.27366E+02    0.40379E+00    0.55146E-09
    0.29854E+02    0.39845E+00    0.12430E-08
    0.32341E+02    0.38901E+00    0.21761E-08
    0.34829E+02    0.38001E+00    0.38891E-08
    0.37317E+02    0.36586E+00    0.66130E-08
    0.39805E+02    0.35293E+00    0.10791E-07
    0.42293E+02    0.31685E+00    0.17353E-07
    0.44780E+02    0.29938E+00    0.26908E-07
    0.47268E+02    0.28456E+00    0.42691E-07
    0.49756E+02    0.27410E+00    0.55060E-07
    0.52244E+02    0.26057E+00    0.11002E-06
    0.54732E+02    0.24691E+00    0.13815E-06
    0.57220E+02    0.23506E+00    0.21378E-06
    0.59707E+02    0.22046E+00    0.38773E-06
    0.62195E+02    0.20357E+00    0.48765E-06
    0.64683E+02    0.19830E+00    0.64763E-06
    0.67171E+02    0.18904E+00    0.69194E-06
    0.69659E+02    0.17784E+00    0.12313E-05
    0.72146E+02    0.16750E+00    0.24841E-05
    0.74634E+02    0.15874E+00    0.38298E-05
    0.77122E+02    0.15065E+00   -0.13939E-05
    0.79610E+02    0.13603E+00    0.99725E-06
    0.82098E+02    0.12466E+00   -0.97824E-05
    0.84585E+02    0.10224E+00   -0.12367E-04
    0.87073E+02    0.81278E-01   -0.22481E-04
    0.89561E+02    0.72338E-01   -0.23151E-04
    0.92049E+02    0.61773E-01   -0.21445E-04
    0.94537E+02    0.53974E-01   -0.60466E-04
    0.97024E+02    0.41495E-01   -0.11939E-03
    0.99512E+02    0.24091E-01   -0.35963E-03
    0.10200E+03    0.56530E-02   -0.86130E-03
zone i=     42,T= "1dxhc;t= 0.7500E+03y,z:   1   1"
    0.00000E+00    0.50000E+00    0.00000E+00
    0.24878E+01    0.49534E+00    0.45001E-12
    0.49756E+01    0.49260E+00    0.16248E-11
    0.74634E+01    0.48997E+00    0.38217E-11
    0.99512E+01    0.48686E+00    0.63399E-11
    0.12439E+02    0.48247E+00    0.12180E-10
    0.14927E+02    0.47846E+00    0.25349E-10
    0.17415E+02    0.46636E+00    0.44486E-10
    0.19902E+02    0.45542E+00    0.96313E-10
    0.22390E+02    0.44580E+00    0.14642E-09
    0.24878E+02    0.43945E+00    0.23942E-09
    0.27366E+02    0.43601E+00    0.26945E-09
    0.29854E+02    0.43336E+00    0.33029E-09
    0.32341E+02    0.43068E+00    0.81359E-09
    0.34829E+02    0.42713E+00    0.13751E-08
    0.37317E+02    0.42438E+00    0.26159E-08
    0.39805E+02    0.41959E+00    0.55213E-08
    0.42293E+02    0.41214E+00    0.16407E-07
    0.44780E+02    0.40469E+00    0.58536E-07
    0.47268E+02    0.39867E+00    0.21555E-06
    0.49756E+02    0.39503E+00    0.60354E-06
    0.52244E+02    0.39236E+00    0.16090E-05
    0.54732E+02    0.38953E+00    0.34958E-05
    0.57220E+02    0.38442E+00    0.10268E-04
    0.59707E+02    0.37454E+00    0.30250E-04
    0.62195E+02    0.36604E+00    0.73946E-04
    0.64683E+02    0.35202E+00    0.23174E-03
    0.67171E+02    0.34140E+00    0.78193E-03
    0.69659E+02    0.33786E+00    0.23724E-02
    0.72146E+02    0.33350E+00    0.66789E-02
    0.74634E+02    0.32515E+00    0.17070E-01
    0.77122E+02    0.32230E+00    0.29105E-02
    0.79610E+02    0.32616E+00    0.15036E+00
    0.82098E+02    0.33412E+00    0.20534E+00
    0.84585E+02    0.34599E+00    0.26548E+00
    0.87073E+02    0.35590E+00    0.30565E+00
    0.89561E+02    0.36785E+00    0.45195E+00
    0.92049E+02    0.37377E+00    0.54974E+00
    0.94537E+02    0.37984E+00    0.59753E+00
    0.97024E+02    0.39004E+00    0.68435E+00
    0.99512E+02    0.40106E+00    0.83842E+00
    0.10200E+03    0.40011E+00    0.10000E+01
zone i=     42,T= "1dxhc;t= 0.7500E+03y,z:   1  12"
    0.00000E+00    0.50000E+00    0.00000E+00
    0.24878E+01    0.49640E+00   -0.57452E-15
    0.49756E+01    0.49533E+00   -0.95394E-15
    0.74634E+01    0.49299E+00   -0.20054E-14
    0.99512E+01    0.48997E+00   -0.76854E-14
    0.12439E+02    0.48516E+00   -0.16288E-13
    0.14927E+02    0.47858E+00   -0.29213E-13
    0.17415E+02    0.47009E+00   -0.46326E-13
    0.19902E+02    0.46016E+00   -0.38893E-13
    0.22390E+02    0.44886E+00   -0.12620E-12
    0.24878E+02    0.43905E+00   -0.42677E-13
    0.27366E+02    0.43239E+00    0.25053E-12
    0.29854E+02    0.42774E+00    0.42954E-11
    0.32341E+02    0.42478E+00    0.20925E-10
    0.34829E+02    0.42162E+00    0.66467E-10
    0.37317E+02    0.41787E+00    0.28995E-09
    0.39805E+02    0.41353E+00    0.12944E-08
    0.42293E+02    0.41098E+00    0.19234E-08
    0.44780E+02    0.40802E+00    0.82154E-10
    0.47268E+02    0.40406E+00    0.19109E-08
    0.49756E+02    0.40183E+00    0.12838E-08
    0.52244E+02    0.39550E+00   -0.28612E-08
    0.54732E+02    0.39029E+00   -0.86087E-08
    0.57220E+02    0.38332E+00   -0.33289E-08
    0.59707E+02    0.37645E+00    0.28910E-06
    0.62195E+02    0.36814E+00    0.51945E-06
    0.64683E+02    0.35100E+00    0.17468E-05
    0.67171E+02    0.33867E+00    0.37579E-05
    0.69659E+02    0.32980E+00    0.63301E-05
    0.72146E+02    0.31383E+00    0.73659E-04
    0.74634E+02    0.29799E+00    0.75858E-04
    0.77122E+02    0.27755E+00    0.17356E-03
    0.79610E+02    0.26940E+00   -0.11717E-02
    0.82098E+02    0.25855E+00   -0.13040E-02
    0.84585E+02    0.24990E+00    0.16613E-02
    0.87073E+02    0.23833E+00    0.16786E-01
    0.89561E+02    0.22868E+00    0.52293E-01
    0.92049E+02    0.21394E+00    0.10250E+00
    0.94537E+02    0.20618E+00    0.23050E+00
    0.97024E+02    0.19971E+00    0.27181E+00
    0.99512E+02    0.17996E+00    0.46404E+00
    0.10200E+03    0.16004E+00    0.10000E+01
zone i=     42,T= "1dxhc;t= 0.7500E+03y,z:   1  22"
    0.00000E+00    0.49786E+00   -0.25328E-11
    0.24878E+01    0.48955E+00   -0.43772E-11
    0.49756E+01    0.48331E+00   -0.10382E-10
    0.74634E+01    0.47893E+00   -0.12745E-10
    0.99512E+01    0.47530E+00   -0.17397E-10
    0.12439E+02    0.47248E+00   -0.15005E-10
    0.14927E+02    0.46046E+00   -0.32034E-11
    0.17415E+02    0.44074E+00    0.30414E-10
    0.19902E+02    0.42544E+00    0.61303E-10
    0.22390E+02    0.41266E+00    0.21175E-09
    0.24878E+02    0.40720E+00    0.38545E-09
    0.27366E+02    0.40377E+00    0.89966E-09
    0.29854E+02    0.39843E+00    0.18481E-08
    0.32341E+02    0.38898E+00    0.30451E-08
    0.34829E+02    0.37998E+00    0.51967E-08
    0.37317E+02    0.36582E+00    0.85530E-08
    0.39805E+02    0.35289E+00    0.13689E-07
    0.42293E+02    0.31678E+00    0.21634E-07
    0.44780E+02    0.29931E+00    0.33080E-07
    0.47268E+02    0.28448E+00    0.51761E-07
    0.49756E+02    0.27402E+00    0.65808E-07
    0.52244E+02    0.26048E+00    0.12925E-06
    0.54732E+02    0.24681E+00    0.15967E-06
    0.57220E+02    0.23494E+00    0.24341E-06
    0.59707E+02    0.22033E+00    0.43592E-06
    0.62195E+02    0.20343E+00    0.54097E-06
    0.64683E+02    0.19816E+00    0.69819E-06
    0.67171E+02    0.18889E+00    0.71319E-06
    0.69659E+02    0.17768E+00    0.12165E-05
    0.72146E+02    0.16734E+00    0.24852E-05
    0.74634E+02    0.15857E+00    0.37608E-05
    0.77122E+02    0.15047E+00   -0.19262E-05
    0.79610E+02    0.13586E+00    0.10673E-06
    0.82098E+02    0.12449E+00   -0.10984E-04
    0.84585E+02    0.10209E+00   -0.14163E-04
    0.87073E+02    0.81148E-01   -0.25543E-04
    0.89561E+02    0.72220E-01   -0.26067E-04
    0.92049E+02    0.61669E-01   -0.23553E-04
    0.94537E+02    0.53882E-01   -0.62353E-04
    0.97024E+02    0.41421E-01   -0.11239E-03
    0.99512E+02    0.24049E-01   -0.36322E-03
    0.10200E+03    0.56430E-02   -0.86067E-03
zone i=     42,T= "1dxhc;t= 0.9000E+03y,z:   1   1"
    0.00000E+00    0.50000E+00    0.00000E+00
    0.24878E+01    0.49535E+00    0.16501E-11
    0.49756E+01    0.49261E+00    0.56745E-11