          Title="3D head and conc at t=   0.2500E+04 days"
          variables="x","y","z","head","conc"
          zone i=      22, j=      42, k=      42, T="3D"
  0.00000000E+00  0.00000000E+00  0.00000000E+00  0.50000000E+00  0.00000000E+00
  0.00000000E+00  0.00000000E+00  0.97608880E+00  0.50000000E+00  0.00000000E+00
  0.00000000E+00  0.00000000E+00  0.19521776E+01  0.50000000E+00  0.00000000E+00
  0.00000000E+00  0.00000000E+00  0.29282664E+01  0.50000000E+00  0.00000000E+00
  0.00000000E+00  0.00000000E+00  0.39043552E+01  0.50000000E+00  0.00000000E+00
  0.00000000E+00  0.00000000E+00  0.48804440E+01  0.50000000E+00  0.00000000E+00
  0.00000000E+00  0.00000000E+00  0.58565328E+01  0.50000000E+00  0.00000000E+00
  0.00000000E+00  0.00000000E+00  0.68326216E+01  0.50000000E+00  0.00000000E+00
  0.00000000E+00  0.00000000E+00  0.78087104E+01  0.50000000E+00  0.00000000E+00
  0.00000000E+00  0.00000000E+00  0.87847992E+01  0.50000000E+00  0.00000000E+00
  0.00000000E+00  0.00000000E+00  0.97608880E+01  0.50000000E+00  0.00000000E+00
  0.00000000E+00  0.00000000E+00  0.10736977E+02  0.50000000E+00  0.00000000E+00
  0.00000000E+00  0.00000000E+00  0.11713066E+02  0.50000000E+00  0.00000000E+00
  0.00000000E+00  0.00000000E+00  0.12689154E+02  0.50000000E+00  0.00000000E+00
  0.00000000E+00  0.00000000E+00  0.13665243E+02  0.50000000E+00  0.00000000E+00
  0.00000000E+00  0.00000000E+00  0.14641332E+02  0.50000000E+00  0.00000000E+00
  0.00000000E+00  0.00000000E+00  0.15617421E+02  0.50000000E+00  0.00000000E+00
  0.00000000E+00  0.00000000E+00  0.16593510E+02  0.50000000E+00  0.00000000E+00
  0.00000000E+00  0.00000000E+00  0.17569598E+02  0.50000000E+00  0.00000000E+00
  0.00000000E+00  0.00000000E+00  0.18545687E+02  0.50000000E+00  0.00000000E+00
  0.00000000E+00  0.00000000E+00  0.19521776E+02  0.50000000E+00  0.00000000E+00
  0.00000000E+00  0.00000000E+00  0.20497865E+02  0.49785650E+00 -0.27861611E-11
  0.00000000E+00  0.24878049E+01  0.00000000E+00  0.50000000E+00  0.00000000E+00
  0.00000000E+00  0.24878049E+01  0.97609135E+00  0.50000000E+00  0.00000000E+00
  0.00000000E+00  0.24878049E+01  0.19521827E+01  0.50000000E+00  0.00000000E+00
  0.00000000E+00  0.24878049E+01  0.29282741E+01  0.50000000E+00  0.00000000E+00
  0.00000000E+00  0.24878049E+01  0.39043654E+01  0.50000000E+00  0.00000000E+00
  0.00000000E+00  0.24878049E+01  0.48804568E+01  0.50000000E+00  0.00000000E+00
  0.00000000E+00  0.24878049E+01  0.58565481E+01  0.50000000E+00  0.00000000E+00
  0.00000000E+00  0.24878049E+01  0.68326395E+01  0.50000000E+00  0.00000000E+00
  0.00000000E+00  0.24878049E+01  0.78087308E+01  0.50000000E+00  0.00000000E+00
  0.00000000E+00  0.24878049E+01  0.87848222E+01  0.50000000E+00  0.00000000E+00
  0.00000000E+00  0.24878049E+01  0.97609135E+01  0.50000000E+00  0.00000000E+00
  0.00000000E+00  0.24878049E+01  0.10737005E+02  0.50000000E+00  0.00000000E+00
  0.00000000E+00  0.24878049E+01  0.11713096E+02  0.50000000E+00  0.00000000E+00
  0.00000000E+00  0.24878049E+01  0.12689188E+02  0.50000000E+00  0.00000000E+00
  0.00000000E+00  0.24878049E+01  0.13665279E+02  0.50000000E+00  0.00000000E+00
  0.00000000E+00  0.24878049E+01  0.14641370E+02  0.50000000E+00  0.00000000E+00
  0.00000000E+00  0.24878049E+01  0.15617462E+02  0.50000000E+00  0.00000000E+00
  0.00000000E+00  0.24878049E+01  0.16593553E+02  0.50000000E+00  0.00000000E+00
  0.00000000E+00  0.24878049E+01  0.17569644E+02  0.50000000E+00  0.00000000E+00
  0.00000000E+00  0.24878049E+01  0.18545736E+02  0.50000000E+00  0.00000000E+00
  0.00000000E+00  0.24878049E+01  0.19521827E+02  0.50000000E+00  0.00000000E+00
  0.00000000E+00  0.24878049E+01  0.20497918E+02  0.49791019E+00 -0.21860230E-11
  0.00000000E+00  0.49756098E+01  0.00000000E+00  0.50000000E+00  0.00000000E+00
  0.00000000E+00  0.49756098E+01  0.97609665E+00  0.50000000E+00  0.00000000E+00
  0.00000000E+00  0.49756098E+01  0.19521933E+01  0.50000000E+00  0.00000000E+00
  0.00000000E+00  0.49756098E+01  0.29282900E+01  0.50000000E+00  0.00000000E+00
  0.00000000E+00  0.49756098E+01  0.39043866E+01  0.50000000E+00  0.00000000E+00
  0.00000000E+00  0.49756098E+01  0.48804833E+01  0.50000000E+00  0.00000000E+00
  0.00000000E+00  0.49756098E+01  0.58565799E+01  0.50000000E+00  0.00000000E+00
  0.00000000E+00  0.49756098E+01  0.68326766E+01  0.50000000E+00  0.00000000E+00
  0.00000000E+00  0.49756098E+01  0.78087732E+01  0.50000000E+00  0.00000000E+00
  0.00000000E+00  0.49756098E+01  0.87848699E+01  0.50000000E+00  0.00000000E+00
  0.00000000E+00  0.49756098E+01  0.97609665E+01  0.50000000E+00  0.00000000E+00
  0.00000000E+00  0.49756098E+01  0.10737063E+02  0.50000000E+00  0.00000000E+00
  0.00000000E+00  0.49756098E+01  0.11713160E+02  0.50000000E+00  0.00000000E+00
  0.00000000E+00  0.49756098E+01  0.12689257E+02  0.50000000E+00  0.00000000E+00
  0.00000000E+00  0.49756098E+01  0.13665353E+02  0.50000000E+00  0.00000000E+00
  0.00000000E+00  0.49756098E+01  0.14641450E+02  0.50000000E+00  0.00000000E+00
  0.00000000E+00  0.49756098E+01  0.15617546E+02  0.50000000E+00  0.00000000E+00
  0.00000000E+00  0.49756098E+01  0.16593643E+02  0.50000000E+00  0.00000000E+00
  0.00000000E+00  0.49756098E+01  0.17569740E+02  0.50000000E+00  0.00000000E+00
  0.00000000E+00  0.49756098E+01  0.18545836E+02  0.50000000E+00  0.00000000E+00
  0.00000000E+00  0.49756098E+01  0.19521933E+02  0.50000000E+00  0.00000000E+00
  0.00000000E+00  0.49756098E+01  0.20498030E+02  0.49802172E+00 -0.54257832E-11
  0.00000000E+00  0.74634146E+01  0.00000000E+00  0.50000000E+00  0.00000000E+00
  0.00000000E+00  0.74634146E+01  0.97609922E+00  0.50000000E+00  0.00000000E+00
  0.00000000E+00  0.74634146E+01  0.19521984E+01  0.50000000E+00  0.00000000E+00
  0.00000000E+00  0.74634146E+01  0.29282977E+01  0.50000000E+00  0.00000000E+00
  0.00000000E+00  0.74634146E+01  0.39043969E+01  0.50000000E+00  0.00000000E+00
  0.00000000E+00  0.74634146E+01  0.48804961E+01  0.50000000E+00  0.00000000E+00
  0.00000000E+00  0.74634146E+01  0.58565953E+01  0.50000000E+00  0.00000000E+00
  0.00000000E+00  0.74634146E+01  0.68326946E+01  0.50000000E+00  0.00000000E+00
  0.00000000E+00  0.74634146E+01  0.78087938E+01  0.50000000E+00  0.00000000E+00
  0.00000000E+00  0.74634146E+01  0.87848930E+01  0.50000000E+00  0.00000000E+00
  0.00000000E+00  0.74634146E+01  0.97609922E+01  0.50000000E+00  0.00000000E+00
  0.00000000E+00  0.74634146E+01  0.10737091E+02  0.50000000E+00  0.00000000E+00
  0.00000000E+00  0.74634146E+01  0.11713191E+02  0.50000000E+00  0.00000000E+00
  0.00000000E+00  0.74634146E+01  0.12689290E+02  0.50000000E+00  0.00000000E+00
  0.00000000E+00  0.74634146E+01  0.13665389E+02  0.50000000E+00  0.00000000E+00
  0.00000000E+00  0.74634146E+01  0.14641488E+02  0.50000000E+00  0.00000000E+00
  0.00000000E+00  0.74634146E+01  0.15617588E+02  0.50000000E+00  0.00000000E+00
  0.00000000E+00  0.74634146E+01  0.16593687E+02  0.50000000E+00  0.00000000E+00
  0.00000000E+00  0.74634146E+01  0.17569786E+02  0.50000000E+00  0.00000000E+00
  0.00000000E+00  0.74634146E+01  0.18545885E+02  0.50000000E+00  0.00000000E+00
  0.00000000E+00  0.74634146E+01  0.19521984E+02  0.50000000E+00  0.00000000E+00
  0.00000000E+00  0.74634146E+01  0.20498084E+02  0.49807582E+00 -0.15010128E-10
  0.00000000E+00  0.99512195E+01  0.00000000E+00  0.50000000E+00  0.00000000E+00
  0.00000000E+00  0.99512195E+01  0.97610109E+00  0.50000000E+00  0.00000000E+00
  0.00000000E+00  0.99512195E+01  0.19522022E+01  0.50000000E+00  0.00000000E+00
  0.00000000E+00  0.99512195E+01  0.29283033E+01  0.50000000E+00  0.00000000E+00
  0.00000000E+00  0.99512195E+01  0.39044043E+01  0.50000000E+00  0.00000000E+00
  0.00000000E+00  0.99512195E+01  0.48805054E+01  0.50000000E+00  0.00000000E+00
  0.00000000E+00  0.99512195E+01  0.58566065E+01  0.50000000E+00  0.00000000E+00
  0.00000000E+00  0.99512195E+01  0.68327076E+01  0.50000000E+00  0.00000000E+00
  0.00000000E+00  0.99512195E+01  0.78088087E+01  0.50000000E+00  0.00000000E+00
  0.00000000E+00  0.99512195E+01  0.87849098E+01  0.50000000E+00  0.00000000E+00
  0.00000000E+00  0.99512195E+01  0.97610109E+01  0.50000000E+00  0.00000000E+00
  0.00000000E+00  0.99512195E+01  0.10737112E+02  0.50000000E+00  0.00000000E+00
  0.00000000E+00  0.99512195E+01  0.11713213E+02  0.50000000E+00  0.00000000E+00
  0.00000000E+00  0.99512195E+01  0.12689314E+02  0.50000000E+00  0.00000000E+00
  0.00000000E+00  0.99512195E+01  0.13665415E+02  0.50000000E+00  0.00000000E+00
  0.00000000E+00  0.99512195E+01  0.14641516E+02  0.50000000E+00  0.00000000E+00
  0.00000000E+00  0.99512195E+01  0.15617617E+02  0.50000000E+00  0.00000000E+00
  0.00000000E+00  0.99512195E+01  0.16593718E+02  0.50000000E+00  0.00000000E+00
  0.00000000E+00  0.99512195E+01  0.17569820E+02  0.50000000E+00  0.00000000E+00
  0.00000000E+00  0.99512195E+01  0.18545921E+02  0.50000000E+00  0.00000000E+00
  0.00000000E+00  0.99512195E+01  0.19522022E+02  0.50000000E+00  0.00000000E+00
  0.00000000E+00  0.99512195E+01  0.20498123E+02  0.49811531E+00 -0.23593008E-10
  0.00000000E+00  0.12439024E+02  0.00000000E+00  0.50000000E+00  0.00000000E+00
  0.00000000E+00  0.12439024E+02  0.97611312E+00  0.50000000E+00  0.00000000E+00
  0.00000000E+00  0.12439024E+02  0.19522262E+01  0.50000000E+00  0.00000000E+00
  0.00000000E+00  0.12439024E+02  0.29283394E+01  0.50000000E+00  0.00000000E+00
  0.00000000E+00  0.12439024E+02  0.39044525E+01  0.50000000E+00  0.00000000E+00
  0.00000000E+00  0.12439024E+02  0.48805656E+01  0.50000000E+00  0.00000000E+00
  0.00000000E+00  0.12439024E+02  0.58566787E+01  0.50000000E+00  0.00000000E+00
  0.00000000E+00  0.12439024E+02  0.68327918E+01  0.50000000E+00  0.00000000E+00
  0.00000000E+00  0.12439024E+02  0.78089050E+01  0.50000000E+00  0.00000000E+00
  0.00000000E+00  0.12439024E+02  0.87850181E+01  0.50000000E+00  0.00000000E+00
  0.00000000E+00  0.12439024E+02  0.97611312E+01  0.50000000E+00  0.00000000E+00
  0.00000000E+00  0.12439024E+02  0.10737244E+02  0.50000000E+00  0.00000000E+00
  0.00000000E+00  0.12439024E+02  0.11713357E+02  0.50000000E+00  0.00000000E+00
  0.00000000E+00  0.12439024E+02  0.12689471E+02  0.50000000E+00  0.00000000E+00
  0.00000000E+00  0.12439024E+02  0.13665584E+02  0.50000000E+00  0.00000000E+00
  0.00000000E+00  0.12439024E+02  0.14641697E+02  0.50000000E+00  0.00000000E+00
  0.00000000E+00  0.12439024E+02  0.15617810E+02  0.50000000E+00  0.00000000E+00
  0.00000000E+00  0.12439024E+02  0.16593923E+02  0.50000000E+00  0.00000000E+00
  0.00000000E+00  0.12439024E+02  0.17570036E+02  0.50000000E+00  0.00000000E+00
  0.00000000E+00  0.12439024E+02  0.18546149E+02  0.50000000E+00  0.00000000E+00
  0.00000000E+00  0.12439024E+02  0.19522262E+02  0.50000000E+00  0.00000000E+00
  0.00000000E+00  0.12439024E+02  0.20498376E+02  0.49836901E+00 -0.33976776E-10
  0.00000000E+00  0.14926829E+02  0.00000000E+00  0.50000000E+00  0.00000000E+00
  0.00000000E+00  0.14926829E+02  0.97613401E+00  0.50000000E+00  0.00000000E+00
  0.00000000E+00  0.14926829E+02  0.19522680E+01  0.50000000E+00  0.00000000E+00
  0.00000000E+00  0.14926829E+02  0.29284020E+01  0.50000000E+00  0.00000000E+00
  0.00000000E+00  0.14926829E+02  0.39045360E+01  0.50000000E+00  0.00000000E+00
  0.00000000E+00  0.14926829E+02  0.48806701E+01  0.50000000E+00  0.00000000E+00
  0.00000000E+00  0.14926829E+02  0.58568041E+01  0.50000000E+00  0.00000000E+00
  0.00000000E+00  0.14926829E+02  0.68329381E+01  0.50000000E+00  0.00000000E+00
  0.00000000E+00  0.14926829E+02  0.78090721E+01  0.50000000E+00  0.00000000E+00
  0.00000000E+00  0.14926829E+02  0.87852061E+01  0.50000000E+00  0.00000000E+00
  0.00000000E+00  0.14926829E+02  0.97613401E+01  0.50000000E+00  0.00000000E+00
  0.00000000E+00  0.14926829E+02  0.10737474E+02  0.50000000E+00  0.00000000E+00
  0.00000000E+00  0.14926829E+02  0.11713608E+02  0.50000000E+00  0.00000000E+00
  0.00000000E+00  0.14926829E+02  0.12689742E+02  0.50000000E+00  0.00000000E+00
  0.00000000E+00  0.14926829E+02  0.13665876E+02  0.50000000E+00  0.00000000E+00
  0.00000000E+00  0.14926829E+02  0.14642010E+02  0.50000000E+00  0.00000000E+00
  0.00000000E+00  0.14926829E+02  0.15618144E+02  0.50000000E+00  0.00000000E+00
  0.00000000E+00  0.14926829E+02  0.16594278E+02  0.50000000E+00  0.00000000E+00
  0.00000000E+00  0.14926829E+02  0.17570412E+02  0.50000000E+00  0.00000000E+00
  0.00000000E+00  0.14926829E+02  0.18546546E+02  0.50000000E+00  0.00000000E+00
  0.00000000E+00  0.14926829E+02  0.19522680E+02  0.50000000E+00  0.00000000E+00
  0.00000000E+00  0.14926829E+02  0.20498814E+02  0.49880934E+00 -0.54471009E-10
  0.00000000E+00  0.17414634E+02  0.00000000E+00  0.50000000E+00  0.00000000E+00
  0.00000000E+00  0.17414634E+02  0.97615089E+00  0.50000000E+00  0.00000000E+00
  0.00000000E+00  0.17414634E+02  0.19523018E+01  0.50000000E+00  0.00000000E+00
  0.00000000E+00  0.17414634E+02  0.29284527E+01  0.50000000E+00  0.00000000E+00
  0.00000000E+00  0.17414634E+02  0.39046036E+01  0.50000000E+00  0.00000000E+00
  0.00000000E+00  0.17414634E+02  0.48807545E+01  0.50000000E+00  0.00000000E+00
  0.00000000E+00  0.17414634E+02  0.58569054E+01  0.50000000E+00  0.00000000E+00
  0.00000000E+00  0.17414634E+02  0.68330562E+01  0.50000000E+00  0.00000000E+00
  0.00000000E+00  0.17414634E+02  0.78092071E+01  0.50000000E+00  0.00000000E+00
  0.00000000E+00  0.17414634E+02  0.87853580E+01  0.50000000E+00  0.00000000E+00
  0.00000000E+00  0.17414634E+02  0.97615089E+01  0.50000000E+00  0.00000000E+00
  0.00000000E+00  0.17414634E+02  0.10737660E+02  0.50000000E+00  0.00000000E+00
  0.00000000E+00  0.17414634E+02  0.11713811E+02  0.50000000E+00  0.00000000E+00
  0.00000000E+00  0.17414634E+02  0.12689962E+02  0.50000000E+00  0.00000000E+00
  0.00000000E+00  0.17414634E+02  0.13666112E+02  0.50000000E+00  0.00000000E+00
  0.00000000E+00  0.17414634E+02  0.14642263E+02  0.50000000E+00  0.00000000E+00
  0.00000000E+00  0.17414634E+02  0.15618414E+02  0.50000000E+00  0.00000000E+00
  0.00000000E+00  0.17414634E+02  0.16594565E+02  0.50000000E+00  0.00000000E+00
  0.00000000E+00  0.17414634E+02  0.17570716E+02  0.50000000E+00  0.00000000E+00
  0.00000000E+00  0.17414634E+02  0.18546867E+02  0.50000000E+00  0.00000000E+00
  0.00000000E+00  0.17414634E+02  0.19523018E+02  0.50000000E+00  0.00000000E+00
  0.00000000E+00  0.17414634E+02  0.20499169E+02  0.49916519E+00 -0.78311891E-10
  0.00000000E+00  0.19902439E+02  0.00000000E+00  0.50000000E+00  0.00000000E+00
  0.00000000E+00  0.19902439E+02  0.97615680E+00  0.50000000E+00  0.00000000E+00
  0.00000000E+00  0.19902439E+02  0.19523136E+01  0.50000000E+00  0.00000000E+00
  0.00000000E+00  0.19902439E+02  0.29284704E+01  0.50000000E+00  0.00000000E+00
  0.00000000E+00  0.19902439E+02  0.39046272E+01  0.50000000E+00  0.00000000E+00
  0.00000000E+00  0.19902439E+02  0.48807840E+01  0.50000000E+00  0.00000000E+00
  0.00000000E+00  0.19902439E+02  0.58569408E+01  0.50000000E+00  0.00000000E+00
  0.00000000E+00  0.19902439E+02  0.68330976E+01  0.50000000E+00  0.00000000E+00
  0.00000000E+00  0.19902439E+02  0.78092544E+01  0.50000000E+00  0.00000000E+00
  0.00000000E+00  0.19902439E+02  0.87854112E+01  0.50000000E+00  0.00000000E+00
  0.00000000E+00  0.19902439E+02  0.97615680E+01  0.50000000E+00  0.00000000E+00
  0.00000000E+00  0.19902439E+02  0.10737725E+02  0.50000000E+00  0.00000000E+00
  0.00000000E+00  0.19902439E+02  0.11713882E+02  0.50000000E+00  0.00000000E+00
  0.00000000E+00  0.19902439E+02  0.12690038E+02  0.50000000E+00  0.00000000E+00
  0.00000000E+00  0.19902439E+02  0.13666195E+02  0.50000000E+00  0.00000000E+00
  0.00000000E+00  0.19902439E+02  0.14642352E+02  0.50000000E+00  0.00000000E+00
  0.00000000E+00  0.19902439E+02  0.15618509E+02  0.50000000E+00  0.00000000E+00
  0.00000000E+00  0.19902439E+02  0.16594666E+02  0.50000000E+00  0.00000000E+00
  0.00000000E+00  0.19902439E+02  0.17570822E+02  0.50000000E+00  0.00000000E+00
  0.00000000E+00  0.19902439E+02  0.18546979E+02  0.50000000E+00  0.00000000E+00
  0.00000000E+00  0.19902439E+02  0.19523136E+02  0.50000000E+00  0.00000000E+00
  0.00000000E+00  0.19902439E+02  0.20499293E+02  0.49928955E+00 -0.11058764E-09
  0.00000000E+00  0.22390244E+02  0.00000000E+00  0.50000000E+00  0.00000000E+00
  0.00000000E+00  0.22390244E+02  0.97613985E+00  0.50000000E+00  0.00000000E+00
  0.00000000E+00  0.22390244E+02  0.19522797E+01  0.50000000E+00  0.00000000E+00
  0.00000000E+00  0.22390244E+02  0.29284196E+01  0.50000000E+00  0.00000000E+00
  0.00000000E+00  0.22390244E+02  0.39045594E+01  0.50000000E+00  0.00000000E+00
  0.00000000E+00  0.22390244E+02  0.48806993E+01  0.50000000E+00  0.00000000E+00
  0.00000000E+00  0.22390244E+02  0.58568391E+01  0.50000000E+00  0.00000000E+00
  0.00000000E+00  0.22390244E+02  0.68329790E+01  0.50000000E+00  0.00000000E+00
  0.00000000E+00  0.22390244E+02  0.78091188E+01  0.50000000E+00  0.00000000E+00
  0.00000000E+00  0.22390244E+02  0.87852587E+01  0.50000000E+00  0.00000000E+00
  0.00000000E+00  0.22390244E+02  0.97613985E+01  0.50000000E+00  0.00000000E+00
  0.00000000E+00  0.22390244E+02  0.10737538E+02  0.50000000E+00  0.00000000E+00
  0.00000000E+00  0.22390244E+02  0.11713678E+02  0.50000000E+00  0.00000000E+00
  0.00000000E+00  0.22390244E+02  0.12689818E+02  0.50000000E+00  0.00000000E+00
  0.00000000E+00  0.22390244E+02  0.13665958E+02  0.50000000E+00  0.00000000E+00
  0.00000000E+00  0.22390244E+02  0.14642098E+02  0.50000000E+00  0.00000000E+00
  0.00000000E+00  0.22390244E+02  0.15618238E+02  0.50000000E+00  0.00000000E+00
  0.00000000E+00  0.22390244E+02  0.16594377E+02  0.50000000E+00  0.00000000E+00
  0.00000000E+00  0.22390244E+02  0.17570517E+02  0.50000000E+00  0.00000000E+00
  0.00000000E+00  0.22390244E+02  0.18546657E+02  0.50000000E+00  0.00000000E+00
  0.00000000E+00  0.22390244E+02  0.19522797E+02  0.50000000E+00  0.00000000E+00
  0.00000000E+00  0.22390244E+02  0.20498937E+02  0.49893227E+00 -0.15633426E-09
  0.00000000E+00  0.24878049E+02  0.00000000E+00  0.50000000E+00  0.00000000E+00
  0.00000000E+00  0.24878049E+02  0.97612446E+00  0.50000000E+00  0.00000000E+00
  0.00000000E+00  0.24878049E+02  0.19522489E+01  0.50000000E+00  0.00000000E+00
  0.00000000E+00  0.24878049E+02  0.29283734E+01  0.50000000E+00  0.00000000E+00
  0.00000000E+00  0.24878049E+02  0.39044978E+01  0.50000000E+00  0.00000000E+00
  0.00000000E+00  0.24878049E+02  0.48806223E+01  0.50000000E+00  0.00000000E+00
  0.00000000E+00  0.24878049E+02  0.58567468E+01  0.50000000E+00  0.00000000E+00
  0.00000000E+00  0.24878049E+02  0.68328712E+01  0.50000000E+00  0.00000000E+00
  0.00000000E+00  0.24878049E+02  0.78089957E+01  0.50000000E+00  0.00000000E+00
  0.00000000E+00  0.24878049E+02  0.87851201E+01  0.50000000E+00  0.00000000E+00
  0.00000000E+00  0.24878049E+02  0.97612446E+01  0.50000000E+00  0.00000000E+00
  0.00000000E+00  0.24878049E+02  0.10737369E+02  0.50000000E+00  0.00000000E+00
  0.00000000E+00  0.24878049E+02  0.11713494E+02  0.50000000E+00  0.00000000E+00
  0.00000000E+00  0.24878049E+02  0.12689618E+02  0.50000000E+00  0.00000000E+00
  0.00000000E+00  0.24878049E+02  0.13665742E+02  0.50000000E+00  0.00000000E+00
  0.00000000E+00  0.24878049E+02  0.14641867E+02  0.50000000E+00  0.00000000E+00
  0.00000000E+00  0.24878049E+02  0.15617991E+02  0.50000000E+00  0.00000000E+00
  0.00000000E+00  0.24878049E+02  0.16594116E+02  0.50000000E+00  0.00000000E+00
  0.00000000E+00  0.24878049E+02  0.17570240E+02  0.50000000E+00  0.00000000E+00
  0.00000000E+00  0.24878049E+02  0.18546365E+02  0.50000000E+00  0.00000000E+00
  0.00000000E+00  0.24878049E+02  0.19522489E+02  0.50000000E+00  0.00000000E+00
  0.00000000E+00  0.24878049E+02  0.20498614E+02  0.49860799E+00 -0.10862380E-09
  0.00000000E+00  0.27365854E+02  0.00000000E+00  0.50000000E+00  0.00000000E+00
  0.00000000E+00  0.27365854E+02  0.97610745E+00  0.50000000E+00  0.00000000E+00
  0.00000000E+00  0.27365854E+02  0.19522149E+01  0.50000000E+00  0.00000000E+00
  0.00000000E+00  0.27365854E+02  0.29283223E+01  0.50000000E+00  0.00000000E+00
  0.00000000E+00  0.27365854E+02  0.39044298E+01  0.50000000E+00  0.00000000E+00
  0.00000000E+00  0.27365854E+02  0.48805372E+01  0.50000000E+00  0.00000000E+00
  0.00000000E+00  0.27365854E+02  0.58566447E+01  0.50000000E+00  0.00000000E+00
  0.00000000E+00  0.27365854E+02  0.68327521E+01  0.50000000E+00  0.00000000E+00
  0.00000000E+00  0.27365854E+02  0.78088596E+01  0.50000000E+00  0.00000000E+00
  0.00000000E+00  0.27365854E+02  0.87849670E+01  0.50000000E+00  0.00000000E+00
  0.00000000E+00  0.27365854E+02  0.97610745E+01  0.50000000E+00  0.00000000E+00
  0.00000000E+00  0.27365854E+02  0.10737182E+02  0.50000000E+00  0.00000000E+00
  0.00000000E+00  0.27365854E+02  0.11713289E+02  0.50000000E+00  0.00000000E+00
  0.00000000E+00  0.27365854E+02  0.12689397E+02  0.50000000E+00  0.00000000E+00
  0.00000000E+00  0.27365854E+02  0.13665504E+02  0.50000000E+00  0.00000000E+00
  0.00000000E+00  0.27365854E+02  0.14641612E+02  0.50000000E+00  0.00000000E+00
  0.00000000E+00  0.27365854E+02  0.15617719E+02  0.50000000E+00  0.00000000E+00
  0.00000000E+00  0.27365854E+02  0.16593827E+02  0.50000000E+00  0.00000000E+00
  0.00000000E+00  0.27365854E+02  0.17569934E+02  0.50000000E+00  0.00000000E+00
  0.00000000E+00  0.27365854E+02  0.18546041E+02  0.50000000E+00  0.00000000E+00
  0.00000000E+00  0.27365854E+02  0.19522149E+02  0.50000000E+00  0.00000000E+00
  0.00000000E+00  0.27365854E+02  0.20498256E+02  0.49824930E+00 -0.13977581E-09
  0.00000000E+00  0.29853659E+02  0.00000000E+00  0.50000000E+00  0.00000000E+00
  0.00000000E+00  0.29853659E+02  0.97610528E+00  0.50000000E+00  0.00000000E+00
  0.00000000E+00  0.29853659E+02  0.19522106E+01  0.50000000E+00  0.00000000E+00
  0.00000000E+00  0.29853659E+02  0.29283158E+01  0.50000000E+00  0.00000000E+00
  0.00000000E+00  0.29853659E+02  0.39044211E+01  0.50000000E+00  0.00000000E+00
  0.00000000E+00  0.29853659E+02  0.48805264E+01  0.50000000E+00  0.00000000E+00
  0.00000000E+00  0.29853659E+02  0.58566317E+01  0.50000000E+00  0.00000000E+00
  0.00000000E+00  0.29853659E+02  0.68327370E+01  0.50000000E+00  0.00000000E+00
  0.00000000E+00  0.29853659E+02  0.78088422E+01  0.50000000E+00  0.00000000E+00
  0.00000000E+00  0.29853659E+02  0.87849475E+01  0.50000000E+00  0.00000000E+00
  0.00000000E+00  0.29853659E+02  0.97610528E+01  0.50000000E+00  0.00000000E+00
  0.00000000E+00  0.29853659E+02  0.10737158E+02  0.50000000E+00  0.00000000E+00
  0.00000000E+00  0.29853659E+02  0.11713263E+02  0.50000000E+00  0.00000000E+00
  0.00000000E+00  0.29853659E+02  0.12689369E+02  0.50000000E+00  0.00000000E+00
  0.00000000E+00  0.29853659E+02  0.13665474E+02  0.50000000E+00  0.00000000E+00
  0.00000000E+00  0.29853659E+02  0.14641579E+02  0.50000000E+00  0.00000000E+00
  0.00000000E+00  0.29853659E+02  0.15617684E+02  0.50000000E+00  0.00000000E+00
  0.00000000E+00  0.29853659E+02  0.16593790E+02  0.50000000E+00  0.00000000E+00
  0.00000000E+00  0.29853659E+02  0.17569895E+02  0.50000000E+00  0.00000000E+00
  0.00000000E+00  0.29853659E+02  0.18546000E+02  0.50000000E+00  0.00000000E+00
  0.00000000E+00  0.29853659E+02  0.19522106E+02  0.50000000E+00  0.00000000E+00
  0.00000000E+00  0.29853659E+02  0.20498211E+02  0.49820346E+00 -0.15738481E-09
  0.00000000E+00  0.32341463E+02  0.00000000E+00  0.50000000E+00  0.00000000E+00
  0.00000000E+00  0.32341463E+02  0.97611378E+00  0.50000000E+00  0.00000000E+00
  0.00000000E+00  0.32341463E+02  0.19522276E+01  0.50000000E+00  0.00000000E+00
  0.00000000E+00  0.32341463E+02  0.29283413E+01  0.50000000E+00  0.00000000E+00
  0.00000000E+00  0.32341463E+02  0.39044551E+01  0.50000000E+00  0.00000000E+00
  0.00000000E+00  0.32341463E+02  0.48805689E+01  0.50000000E+00  0.00000000E+00
  0.00000000E+00  0.32341463E+02  0.58566827E+01  0.50000000E+00  0.00000000E+00
  0.00000000E+00  0.32341463E+02  0.68327964E+01  0.50000000E+00  0.00000000E+00
  0.00000000E+00  0.32341463E+02  0.78089102E+01  0.50000000E+00  0.00000000E+00
  0.00000000E+00  0.32341463E+02  0.87850240E+01  0.50000000E+00  0.00000000E+00
  0.00000000E+00  0.32341463E+02  0.97611378E+01  0.50000000E+00  0.00000000E+00
  0.00000000E+00  0.32341463E+02  0.10737252E+02  0.50000000E+00  0.00000000E+00
  0.00000000E+00  0.32341463E+02  0.11713365E+02  0.50000000E+00  0.00000000E+00
  0.00000000E+00  0.32341463E+02  0.12689479E+02  0.50000000E+00  0.00000000E+00
  0.00000000E+00  0.32341463E+02  0.13665593E+02  0.50000000E+00  0.00000000E+00
  0.00000000E+00  0.32341463E+02  0.14641707E+02  0.50000000E+00  0.00000000E+00
  0.00000000E+00  0.32341463E+02  0.15617820E+02  0.50000000E+00  0.00000000E+00
  0.00000000E+00  0.32341463E+02  0.16593934E+02  0.50000000E+00  0.00000000E+00
  0.00000000E+00  0.32341463E+02  0.17570048E+02  0.50000000E+00  0.00000000E+00
  0.00000000E+00  0.32341463E+02  0.18546162E+02  0.50000000E+00  0.00000000E+00
  0.00000000E+00  0.32341463E+02  0.19522276E+02  0.50000000E+00  0.00000000E+00
  0.00000000E+00  0.32341463E+02  0.20498389E+02  0.49838268E+00 -0.11602514E-09
  0.00000000E+00  0.34829268E+02  0.00000000E+00  0.50000000E+00  0.00000000E+00
  0.00000000E+00  0.34829268E+02  0.97612748E+00  0.50000000E+00  0.00000000E+00
  0.00000000E+00  0.34829268E+02  0.19522550E+01  0.50000000E+00  0.00000000E+00
  0.00000000E+00  0.34829268E+02  0.29283825E+01  0.50000000E+00  0.00000000E+00
  0.00000000E+00  0.34829268E+02  0.39045099E+01  0.50000000E+00  0.00000000E+00
  0.00000000E+00  0.34829268E+02  0.48806374E+01  0.50000000E+00  0.00000000E+00
  0.00000000E+00  0.34829268E+02  0.58567649E+01  0.50000000E+00  0.00000000E+00
  0.00000000E+00  0.34829268E+02  0.68328924E+01  0.50000000E+00  0.00000000E+00
  0.00000000E+00  0.34829268E+02  0.78090199E+01  0.50000000E+00  0.00000000E+00
  0.00000000E+00  0.34829268E+02  0.87851474E+01  0.50000000E+00  0.00000000E+00
  0.00000000E+00  0.34829268E+02  0.97612748E+01  0.50000000E+00  0.00000000E+00
  0.00000000E+00  0.34829268E+02  0.10737402E+02  0.50000000E+00  0.00000000E+00
  0.00000000E+00  0.34829268E+02  0.11713530E+02  0.50000000E+00  0.00000000E+00
  0.00000000E+00  0.34829268E+02  0.12689657E+02  0.50000000E+00  0.00000000E+00
  0.00000000E+00  0.34829268E+02  0.13665785E+02  0.50000000E+00  0.00000000E+00
  0.00000000E+00  0.34829268E+02  0.14641912E+02  0.50000000E+00  0.00000000E+00
  0.00000000E+00  0.34829268E+02  0.15618040E+02  0.50000000E+00  0.00000000E+00
  0.00000000E+00  0.34829268E+02  0.16594167E+02  0.50000000E+00  0.00000000E+00
  0.00000000E+00  0.34829268E+02  0.17570295E+02  0.50000000E+00  0.00000000E+00
  0.00000000E+00  0.34829268E+02  0.18546422E+02  0.50000000E+00  0.00000000E+00
  0.00000000E+00  0.34829268E+02  0.19522550E+02  0.50000000E+00  0.00000000E+00
  0.00000000E+00  0.34829268E+02  0.20498677E+02  0.49867181E+00 -0.11147403E-09
  0.00000000E+00  0.37317073E+02  0.00000000E+00  0.50000000E+00  0.00000000E+00
  0.00000000E+00  0.37317073E+02  0.97614655E+00  0.50000000E+00  0.00000000E+00
  0.00000000E+00  0.37317073E+02  0.19522931E+01  0.50000000E+00  0.00000000E+00
  0.00000000E+00  0.37317073E+02  0.29284397E+01  0.50000000E+00  0.00000000E+00
  0.00000000E+00  0.37317073E+02  0.39045862E+01  0.50000000E+00  0.00000000E+00
  0.00000000E+00  0.37317073E+02  0.48807328E+01  0.50000000E+00  0.00000000E+00
  0.00000000E+00  0.37317073E+02  0.58568793E+01  0.50000000E+00  0.00000000E+00
  0.00000000E+00  0.37317073E+02  0.68330259E+01  0.50000000E+00  0.00000000E+00
  0.00000000E+00  0.37317073E+02  0.78091724E+01  0.50000000E+00  0.00000000E+00
  0.00000000E+00  0.37317073E+02  0.87853190E+01  0.50000000E+00  0.00000000E+00
  0.00000000E+00  0.37317073E+02  0.97614655E+01  0.50000000E+00  0.00000000E+00
  0.00000000E+00  0.37317073E+02  0.10737612E+02  0.50000000E+00  0.00000000E+00
  0.00000000E+00  0.37317073E+02  0.11713759E+02  0.50000000E+00  0.00000000E+00
  0.00000000E+00  0.37317073E+02  0.12689905E+02  0.50000000E+00  0.00000000E+00
  0.00000000E+00  0.37317073E+02  0.13666052E+02  0.50000000E+00  0.00000000E+00
  0.00000000E+00  0.37317073E+02  0.14642198E+02  0.50000000E+00  0.00000000E+00
  0.00000000E+00  0.37317073E+02  0.15618345E+02  0.50000000E+00  0.00000000E+00
  0.00000000E+00  0.37317073E+02  0.16594491E+02  0.50000000E+00  0.00000000E+00
  0.00000000E+00  0.37317073E+02  0.17570638E+02  0.50000000E+00  0.00000000E+00
  0.00000000E+00  0.37317073E+02  0.18546785E+02  0.50000000E+00  0.00000000E+00
  0.00000000E+00  0.37317073E+02  0.19522931E+02  0.50000000E+00  0.00000000E+00
  0.00000000E+00  0.37317073E+02  0.20499078E+02  0.49907400E+00 -0.12629543E-09
  0.00000000E+00  0.39804878E+02  0.00000000E+00  0.50000000E+00  0.00000000E+00
  0.00000000E+00  0.39804878E+02  0.97615504E+00  0.50000000E+00  0.00000000E+00
  0.00000000E+00  0.39804878E+02  0.19523101E+01  0.50000000E+00  0.00000000E+00
  0.00000000E+00  0.39804878E+02  0.29284651E+01  0.50000000E+00  0.00000000E+00
  0.00000000E+00  0.39804878E+02  0.39046202E+01  0.50000000E+00  0.00000000E+00
  0.00000000E+00  0.39804878E+02  0.48807752E+01  0.50000000E+00  0.00000000E+00
  0.00000000E+00  0.39804878E+02  0.58569302E+01  0.50000000E+00  0.00000000E+00
  0.00000000E+00  0.39804878E+02  0.68330853E+01  0.50000000E+00  0.00000000E+00
  0.00000000E+00  0.39804878E+02  0.78092403E+01  0.50000000E+00  0.00000000E+00
  0.00000000E+00  0.39804878E+02  0.87853954E+01  0.50000000E+00  0.00000000E+00
  0.00000000E+00  0.39804878E+02  0.97615504E+01  0.50000000E+00  0.00000000E+00
  0.00000000E+00  0.39804878E+02  0.10737705E+02  0.50000000E+00  0.00000000E+00
  0.00000000E+00  0.39804878E+02  0.11713860E+02  0.50000000E+00  0.00000000E+00
  0.00000000E+00  0.39804878E+02  0.12690016E+02  0.50000000E+00  0.00000000E+00
  0.00000000E+00  0.39804878E+02  0.13666171E+02  0.50000000E+00  0.00000000E+00
  0.00000000E+00  0.39804878E+02  0.14642326E+02  0.50000000E+00  0.00000000E+00