title="2d K section "
variables="x","z","Kx","logKx","Kz","logKz","porosity"
zone i=    22, j=    42,T="Initial K at t=0"
   0.0000000E+00   0.0000000E+00   0.3959135E-04  -0.4402400E+01   0.3959135E-04  -0.4402400E+01   0.3000000E+00
   0.0000000E+00   0.9761905E+00   0.1012214E-03  -0.3994728E+01   0.1012214E-03  -0.3994728E+01   0.3000000E+00
   0.0000000E+00   0.1952381E+01   0.6382919E-04  -0.4194981E+01   0.6382919E-04  -0.4194981E+01   0.3000000E+00
   0.0000000E+00   0.2928571E+01   0.8574781E-04  -0.4066777E+01   0.8574781E-04  -0.4066777E+01   0.3000000E+00
   0.0000000E+00   0.3904762E+01   0.7357539E-04  -0.4133267E+01   0.7357539E-04  -0.4133267E+01   0.3000000E+00
   0.0000000E+00   0.4880952E+01   0.4867719E-04  -0.4312674E+01   0.4867719E-04  -0.4312674E+01   0.3000000E+00
   0.0000000E+00   0.5857143E+01   0.1555700E-04  -0.4808074E+01   0.1555700E-04  -0.4808074E+01   0.3000000E+00
   0.0000000E+00   0.6833333E+01   0.1695072E-04  -0.4770812E+01   0.1695072E-04  -0.4770812E+01   0.3000000E+00
   0.0000000E+00   0.7809524E+01   0.5102984E-04  -0.4292176E+01   0.5102984E-04  -0.4292176E+01   0.3000000E+00
   0.0000000E+00   0.8785714E+01   0.9028854E-04  -0.4044367E+01   0.9028854E-04  -0.4044367E+01   0.3000000E+00
   0.0000000E+00   0.9761905E+01   0.7627236E-04  -0.4117633E+01   0.7627236E-04  -0.4117633E+01   0.3000000E+00
   0.0000000E+00   0.1073810E+02   0.8897593E-07  -0.7050727E+01   0.8897593E-07  -0.7050727E+01   0.3000000E+00
   0.0000000E+00   0.1171429E+02   0.1947567E-07  -0.7710508E+01   0.1947567E-07  -0.7710508E+01   0.3000000E+00
   0.0000000E+00   0.1269048E+02   0.4371389E-07  -0.7359381E+01   0.4371389E-07  -0.7359381E+01   0.3000000E+00
   0.0000000E+00   0.1366667E+02   0.5607364E-07  -0.7251241E+01   0.5607364E-07  -0.7251241E+01   0.3000000E+00
   0.0000000E+00   0.1464286E+02   0.2640044E-06  -0.6578389E+01   0.2640044E-06  -0.6578389E+01   0.3000000E+00
   0.0000000E+00   0.1561905E+02   0.9052360E-04  -0.4043238E+01   0.9052360E-04  -0.4043238E+01   0.3000000E+00
   0.0000000E+00   0.1659524E+02   0.6356167E-04  -0.4196805E+01   0.6356167E-04  -0.4196805E+01   0.3000000E+00
   0.0000000E+00   0.1757143E+02   0.6038922E-04  -0.4219041E+01   0.6038922E-04  -0.4219041E+01   0.3000000E+00
   0.0000000E+00   0.1854762E+02   0.5470256E-04  -0.4261992E+01   0.5470256E-04  -0.4261992E+01   0.3000000E+00
   0.0000000E+00   0.1952381E+02   0.6368892E-04  -0.4195936E+01   0.6368892E-04  -0.4195936E+01   0.3000000E+00
   0.0000000E+00   0.2050000E+02   0.6368892E-04  -0.4195936E+01   0.6368892E-04  -0.4195936E+01   0.3000000E+00
   0.2487805E+01   0.0000000E+00   0.1102125E-03  -0.3957769E+01   0.1102125E-03  -0.3957769E+01   0.3000000E+00
   0.2487805E+01   0.9761905E+00   0.2108212E-03  -0.3676086E+01   0.2108212E-03  -0.3676086E+01   0.3000000E+00
   0.2487805E+01   0.1952381E+01   0.1973760E-03  -0.3704706E+01   0.1973760E-03  -0.3704706E+01   0.3000000E+00
   0.2487805E+01   0.2928571E+01   0.1310804E-03  -0.3882462E+01   0.1310804E-03  -0.3882462E+01   0.3000000E+00
   0.2487805E+01   0.3904762E+01   0.3161433E-04  -0.4500116E+01   0.3161433E-04  -0.4500116E+01   0.3000000E+00
   0.2487805E+01   0.4880952E+01   0.3397451E-04  -0.4468847E+01   0.3397451E-04  -0.4468847E+01   0.3000000E+00
   0.2487805E+01   0.5857143E+01   0.5813748E-04  -0.4235544E+01   0.5813748E-04  -0.4235544E+01   0.3000000E+00
   0.2487805E+01   0.6833333E+01   0.6943635E-04  -0.4158413E+01   0.6943635E-04  -0.4158413E+01   0.3000000E+00
   0.2487805E+01   0.7809524E+01   0.2031634E-03  -0.3692155E+01   0.2031634E-03  -0.3692155E+01   0.3000000E+00
   0.2487805E+01   0.8785714E+01   0.2242386E-03  -0.3649290E+01   0.2242386E-03  -0.3649290E+01   0.3000000E+00
   0.2487805E+01   0.9761905E+01   0.2535879E-03  -0.3595871E+01   0.2535879E-03  -0.3595871E+01   0.3000000E+00
   0.2487805E+01   0.1073810E+02   0.4658837E-08  -0.8331722E+01   0.4658837E-08  -0.8331722E+01   0.3000000E+00
   0.2487805E+01   0.1171429E+02   0.5091466E-08  -0.8293157E+01   0.5091466E-08  -0.8293157E+01   0.3000000E+00
   0.2487805E+01   0.1269048E+02   0.7750566E-08  -0.8110667E+01   0.7750566E-08  -0.8110667E+01   0.3000000E+00
   0.2487805E+01   0.1366667E+02   0.2416405E-07  -0.7616830E+01   0.2416405E-07  -0.7616830E+01   0.3000000E+00
   0.2487805E+01   0.1464286E+02   0.1096080E-03  -0.3960158E+01   0.1096080E-03  -0.3960158E+01   0.3000000E+00
   0.2487805E+01   0.1561905E+02   0.2312063E-03  -0.3636000E+01   0.2312063E-03  -0.3636000E+01   0.3000000E+00
   0.2487805E+01   0.1659524E+02   0.1721749E-03  -0.3764030E+01   0.1721749E-03  -0.3764030E+01   0.3000000E+00
   0.2487805E+01   0.1757143E+02   0.1142410E-03  -0.3942178E+01   0.1142410E-03  -0.3942178E+01   0.3000000E+00
   0.2487805E+01   0.1854762E+02   0.4615986E-04  -0.4335736E+01   0.4615986E-04  -0.4335736E+01   0.3000000E+00
   0.2487805E+01   0.1952381E+02   0.1355595E-03  -0.3867870E+01   0.1355595E-03  -0.3867870E+01   0.3000000E+00
   0.2487805E+01   0.2050000E+02   0.1355595E-03  -0.3867870E+01   0.1355595E-03  -0.3867870E+01   0.3000000E+00
   0.4975610E+01   0.0000000E+00   0.2124508E-03  -0.3672742E+01   0.2124508E-03  -0.3672742E+01   0.3000000E+00
   0.4975610E+01   0.9761905E+00   0.2630938E-03  -0.3579889E+01   0.2630938E-03  -0.3579889E+01   0.3000000E+00
   0.4975610E+01   0.1952381E+01   0.1861608E-03  -0.3730112E+01   0.1861608E-03  -0.3730112E+01   0.3000000E+00
   0.4975610E+01   0.2928571E+01   0.9418967E-04  -0.4025997E+01   0.9418967E-04  -0.4025997E+01   0.3000000E+00
   0.4975610E+01   0.3904762E+01   0.5357650E-04  -0.4271026E+01   0.5357650E-04  -0.4271026E+01   0.3000000E+00
   0.4975610E+01   0.4880952E+01   0.4369836E-04  -0.4359535E+01   0.4369836E-04  -0.4359535E+01   0.3000000E+00
   0.4975610E+01   0.5857143E+01   0.4712533E-04  -0.4326746E+01   0.4712533E-04  -0.4326746E+01   0.3000000E+00
   0.4975610E+01   0.6833333E+01   0.9548895E-04  -0.4020047E+01   0.9548895E-04  -0.4020047E+01   0.3000000E+00
   0.4975610E+01   0.7809524E+01   0.1885212E-03  -0.3724640E+01   0.1885212E-03  -0.3724640E+01   0.3000000E+00
   0.4975610E+01   0.8785714E+01   0.1213660E-03  -0.3915903E+01   0.1213660E-03  -0.3915903E+01   0.3000000E+00
   0.4975610E+01   0.9761905E+01   0.9321518E-04  -0.4030513E+01   0.9321518E-04  -0.4030513E+01   0.3000000E+00
   0.4975610E+01   0.1073810E+02   0.7893707E-08  -0.8102719E+01   0.7893707E-08  -0.8102719E+01   0.3000000E+00
   0.4975610E+01   0.1171429E+02   0.4129539E-08  -0.8384098E+01   0.4129539E-08  -0.8384098E+01   0.3000000E+00
   0.4975610E+01   0.1269048E+02   0.8706465E-08  -0.8060158E+01   0.8706465E-08  -0.8060158E+01   0.3000000E+00
   0.4975610E+01   0.1366667E+02   0.1107584E-07  -0.7955623E+01   0.1107584E-07  -0.7955623E+01   0.3000000E+00
   0.4975610E+01   0.1464286E+02   0.2355235E-03  -0.3627966E+01   0.2355235E-03  -0.3627966E+01   0.3000000E+00
   0.4975610E+01   0.1561905E+02   0.5535270E-03  -0.3256861E+01   0.5535270E-03  -0.3256861E+01   0.3000000E+00
   0.4975610E+01   0.1659524E+02   0.1973365E-03  -0.3704793E+01   0.1973365E-03  -0.3704793E+01   0.3000000E+00
   0.4975610E+01   0.1757143E+02   0.1322786E-03  -0.3878510E+01   0.1322786E-03  -0.3878510E+01   0.3000000E+00
   0.4975610E+01   0.1854762E+02   0.1348025E-03  -0.3870302E+01   0.1348025E-03  -0.3870302E+01   0.3000000E+00
   0.4975610E+01   0.1952381E+02   0.1642534E-03  -0.3784486E+01   0.1642534E-03  -0.3784486E+01   0.3000000E+00
   0.4975610E+01   0.2050000E+02   0.1642534E-03  -0.3784486E+01   0.1642534E-03  -0.3784486E+01   0.3000000E+00
   0.7463415E+01   0.0000000E+00   0.2596957E-03  -0.3585535E+01   0.2596957E-03  -0.3585535E+01   0.3000000E+00
   0.7463415E+01   0.9761905E+00   0.1778625E-03  -0.3749916E+01   0.1778625E-03  -0.3749916E+01   0.3000000E+00
   0.7463415E+01   0.1952381E+01   0.1515795E-03  -0.3819359E+01   0.1515795E-03  -0.3819359E+01   0.3000000E+00
   0.7463415E+01   0.2928571E+01   0.7004309E-04  -0.4154635E+01   0.7004309E-04  -0.4154635E+01   0.3000000E+00
   0.7463415E+01   0.3904762E+01   0.5428297E-04  -0.4265336E+01   0.5428297E-04  -0.4265336E+01   0.3000000E+00
   0.7463415E+01   0.4880952E+01   0.3598530E-04  -0.4443875E+01   0.3598530E-04  -0.4443875E+01   0.3000000E+00
   0.7463415E+01   0.5857143E+01   0.1473773E-04  -0.4831570E+01   0.1473773E-04  -0.4831570E+01   0.3000000E+00
   0.7463415E+01   0.6833333E+01   0.2855153E-04  -0.4544371E+01   0.2855153E-04  -0.4544371E+01   0.3000000E+00
   0.7463415E+01   0.7809524E+01   0.3202800E-04  -0.4494470E+01   0.3202800E-04  -0.4494470E+01   0.3000000E+00
   0.7463415E+01   0.8785714E+01   0.1528123E-03  -0.3815842E+01   0.1528123E-03  -0.3815842E+01   0.3000000E+00
   0.7463415E+01   0.9761905E+01   0.6431614E-04  -0.4191680E+01   0.6431614E-04  -0.4191680E+01   0.3000000E+00
   0.7463415E+01   0.1073810E+02   0.1662929E-07  -0.7779126E+01   0.1662929E-07  -0.7779126E+01   0.3000000E+00
   0.7463415E+01   0.1171429E+02   0.3957315E-08  -0.8402599E+01   0.3957315E-08  -0.8402599E+01   0.3000000E+00
   0.7463415E+01   0.1269048E+02   0.7105477E-08  -0.8148407E+01   0.7105477E-08  -0.8148407E+01   0.3000000E+00
   0.7463415E+01   0.1366667E+02   0.7972243E-08  -0.8098419E+01   0.7972243E-08  -0.8098419E+01   0.3000000E+00
   0.7463415E+01   0.1464286E+02   0.1201103E-03  -0.3920420E+01   0.1201103E-03  -0.3920420E+01   0.3000000E+00
   0.7463415E+01   0.1561905E+02   0.2397293E-03  -0.3620279E+01   0.2397293E-03  -0.3620279E+01   0.3000000E+00
   0.7463415E+01   0.1659524E+02   0.2415582E-03  -0.3616978E+01   0.2415582E-03  -0.3616978E+01   0.3000000E+00
   0.7463415E+01   0.1757143E+02   0.4477838E-03  -0.3348932E+01   0.4477838E-03  -0.3348932E+01   0.3000000E+00
   0.7463415E+01   0.1854762E+02   0.4100629E-03  -0.3387150E+01   0.4100629E-03  -0.3387150E+01   0.3000000E+00
   0.7463415E+01   0.1952381E+02   0.1734016E-03  -0.3760947E+01   0.1734016E-03  -0.3760947E+01   0.3000000E+00
   0.7463415E+01   0.2050000E+02   0.1734016E-03  -0.3760947E+01   0.1734016E-03  -0.3760947E+01   0.3000000E+00
   0.9951220E+01   0.0000000E+00   0.1466591E-03  -0.3833691E+01   0.1466591E-03  -0.3833691E+01   0.3000000E+00
   0.9951220E+01   0.9761905E+00   0.2072054E-03  -0.3683599E+01   0.2072054E-03  -0.3683599E+01   0.3000000E+00
   0.9951220E+01   0.1952381E+01   0.1175320E-03  -0.3929844E+01   0.1175320E-03  -0.3929844E+01   0.3000000E+00
   0.9951220E+01   0.2928571E+01   0.7181623E-04  -0.4143777E+01   0.7181623E-04  -0.4143777E+01   0.3000000E+00
   0.9951220E+01   0.3904762E+01   0.3942147E-04  -0.4404267E+01   0.3942147E-04  -0.4404267E+01   0.3000000E+00
   0.9951220E+01   0.4880952E+01   0.3527274E-04  -0.4452561E+01   0.3527274E-04  -0.4452561E+01   0.3000000E+00
   0.9951220E+01   0.5857143E+01   0.1936971E-04  -0.4712877E+01   0.1936971E-04  -0.4712877E+01   0.3000000E+00
   0.9951220E+01   0.6833333E+01   0.9551618E-05  -0.5019923E+01   0.9551618E-05  -0.5019923E+01   0.3000000E+00
   0.9951220E+01   0.7809524E+01   0.2447888E-04  -0.4611209E+01   0.2447888E-04  -0.4611209E+01   0.3000000E+00
   0.9951220E+01   0.8785714E+01   0.4690436E-04  -0.4328787E+01   0.4690436E-04  -0.4328787E+01   0.3000000E+00
   0.9951220E+01   0.9761905E+01   0.6023241E-04  -0.4220170E+01   0.6023241E-04  -0.4220170E+01   0.3000000E+00
   0.9951220E+01   0.1073810E+02   0.1037777E-07  -0.7983896E+01   0.1037777E-07  -0.7983896E+01   0.3000000E+00
   0.9951220E+01   0.1171429E+02   0.2709003E-07  -0.7567190E+01   0.2709003E-07  -0.7567190E+01   0.3000000E+00
   0.9951220E+01   0.1269048E+02   0.6747458E-08  -0.8170860E+01   0.6747458E-08  -0.8170860E+01   0.3000000E+00
   0.9951220E+01   0.1366667E+02   0.4065212E-08  -0.8390917E+01   0.4065212E-08  -0.8390917E+01   0.3000000E+00
   0.9951220E+01   0.1464286E+02   0.6843679E-04  -0.4164710E+01   0.6843679E-04  -0.4164710E+01   0.3000000E+00
   0.9951220E+01   0.1561905E+02   0.1337819E-03  -0.3873603E+01   0.1337819E-03  -0.3873603E+01   0.3000000E+00
   0.9951220E+01   0.1659524E+02   0.1363071E-03  -0.3865481E+01   0.1363071E-03  -0.3865481E+01   0.3000000E+00
   0.9951220E+01   0.1757143E+02   0.1963719E-03  -0.3706921E+01   0.1963719E-03  -0.3706921E+01   0.3000000E+00
   0.9951220E+01   0.1854762E+02   0.4100219E-03  -0.3387193E+01   0.4100219E-03  -0.3387193E+01   0.3000000E+00
   0.9951220E+01   0.1952381E+02   0.2082024E-03  -0.3681514E+01   0.2082024E-03  -0.3681514E+01   0.3000000E+00
   0.9951220E+01   0.2050000E+02   0.2082024E-03  -0.3681514E+01   0.2082024E-03  -0.3681514E+01   0.3000000E+00
   0.1243902E+02   0.0000000E+00   0.1240904E-03  -0.3906262E+01   0.1240904E-03  -0.3906262E+01   0.3000000E+00
   0.1243902E+02   0.9761905E+00   0.2043247E-03  -0.3689679E+01   0.2043247E-03  -0.3689679E+01   0.3000000E+00
   0.1243902E+02   0.1952381E+01   0.3010603E-03  -0.3521347E+01   0.3010603E-03  -0.3521347E+01   0.3000000E+00
   0.1243902E+02   0.2928571E+01   0.1185946E-03  -0.3925935E+01   0.1185946E-03  -0.3925935E+01   0.3000000E+00
   0.1243902E+02   0.3904762E+01   0.6825226E-04  -0.4165883E+01   0.6825226E-04  -0.4165883E+01   0.3000000E+00
   0.1243902E+02   0.4880952E+01   0.4280310E-04  -0.4368525E+01   0.4280310E-04  -0.4368525E+01   0.3000000E+00
   0.1243902E+02   0.5857143E+01   0.1813984E-04  -0.4741367E+01   0.1813984E-04  -0.4741367E+01   0.3000000E+00
   0.1243902E+02   0.6833333E+01   0.6594332E-05  -0.5180829E+01   0.6594332E-05  -0.5180829E+01   0.3000000E+00
   0.1243902E+02   0.7809524E+01   0.1072965E-04  -0.4969415E+01   0.1072965E-04  -0.4969415E+01   0.3000000E+00
   0.1243902E+02   0.8785714E+01   0.3026254E-04  -0.4519095E+01   0.3026254E-04  -0.4519095E+01   0.3000000E+00
   0.1243902E+02   0.9761905E+01   0.4006129E-04  -0.4397275E+01   0.4006129E-04  -0.4397275E+01   0.3000000E+00
   0.1243902E+02   0.1073810E+02   0.4171104E-07  -0.7379749E+01   0.4171104E-07  -0.7379749E+01   0.3000000E+00
   0.1243902E+02   0.1171429E+02   0.4128362E-07  -0.7384222E+01   0.4128362E-07  -0.7384222E+01   0.3000000E+00
   0.1243902E+02   0.1269048E+02   0.8517866E-08  -0.8069669E+01   0.8517866E-08  -0.8069669E+01   0.3000000E+00
   0.1243902E+02   0.1366667E+02   0.5662502E-08  -0.8246992E+01   0.5662502E-08  -0.8246992E+01   0.3000000E+00
   0.1243902E+02   0.1464286E+02   0.3427823E-04  -0.4464982E+01   0.3427823E-04  -0.4464982E+01   0.3000000E+00
   0.1243902E+02   0.1561905E+02   0.9090460E-04  -0.4041414E+01   0.9090460E-04  -0.4041414E+01   0.3000000E+00
   0.1243902E+02   0.1659524E+02   0.6014213E-04  -0.4220821E+01   0.6014213E-04  -0.4220821E+01   0.3000000E+00
   0.1243902E+02   0.1757143E+02   0.6223457E-04  -0.4205968E+01   0.6223457E-04  -0.4205968E+01   0.3000000E+00
   0.1243902E+02   0.1854762E+02   0.6286632E-04  -0.4201582E+01   0.6286632E-04  -0.4201582E+01   0.3000000E+00
   0.1243902E+02   0.1952381E+02   0.3607538E-04  -0.4442789E+01   0.3607538E-04  -0.4442789E+01   0.3000000E+00
   0.1243902E+02   0.2050000E+02   0.3607538E-04  -0.4442789E+01   0.3607538E-04  -0.4442789E+01   0.3000000E+00
   0.1492683E+02   0.0000000E+00   0.4898972E-04  -0.4309895E+01   0.4898972E-04  -0.4309895E+01   0.3000000E+00
   0.1492683E+02   0.9761905E+00   0.5131128E-04  -0.4289787E+01   0.5131128E-04  -0.4289787E+01   0.3000000E+00
   0.1492683E+02   0.1952381E+01   0.5869242E-04  -0.4231418E+01   0.5869242E-04  -0.4231418E+01   0.3000000E+00
   0.1492683E+02   0.2928571E+01   0.3770190E-04  -0.4423637E+01   0.3770190E-04  -0.4423637E+01   0.3000000E+00
   0.1492683E+02   0.3904762E+01   0.5404465E-04  -0.4267247E+01   0.5404465E-04  -0.4267247E+01   0.3000000E+00
   0.1492683E+02   0.4880952E+01   0.3754389E-04  -0.4425461E+01   0.3754389E-04  -0.4425461E+01   0.3000000E+00
   0.1492683E+02   0.5857143E+01   0.1389335E-04  -0.4857193E+01   0.1389335E-04  -0.4857193E+01   0.3000000E+00
   0.1492683E+02   0.6833333E+01   0.1685438E-04  -0.4773287E+01   0.1685438E-04  -0.4773287E+01   0.3000000E+00
   0.1492683E+02   0.7809524E+01   0.1035025E-04  -0.4985049E+01   0.1035025E-04  -0.4985049E+01   0.3000000E+00
   0.1492683E+02   0.8785714E+01   0.1267220E-04  -0.4897148E+01   0.1267220E-04  -0.4897148E+01   0.3000000E+00
   0.1492683E+02   0.9761905E+01   0.2742378E-04  -0.4561873E+01   0.2742378E-04  -0.4561873E+01   0.3000000E+00
   0.1492683E+02   0.1073810E+02   0.1601588E-06  -0.6795449E+01   0.1601588E-06  -0.6795449E+01   0.3000000E+00
   0.1492683E+02   0.1171429E+02   0.3006813E-07  -0.7521894E+01   0.3006813E-07  -0.7521894E+01   0.3000000E+00
   0.1492683E+02   0.1269048E+02   0.3050730E-07  -0.7515596E+01   0.3050730E-07  -0.7515596E+01   0.3000000E+00
   0.1492683E+02   0.1366667E+02   0.2396911E-07  -0.7620348E+01   0.2396911E-07  -0.7620348E+01   0.3000000E+00
   0.1492683E+02   0.1464286E+02   0.2542189E-04  -0.4594792E+01   0.2542189E-04  -0.4594792E+01   0.3000000E+00
   0.1492683E+02   0.1561905E+02   0.6396977E-04  -0.4194025E+01   0.6396977E-04  -0.4194025E+01   0.3000000E+00
   0.1492683E+02   0.1659524E+02   0.4403614E-04  -0.4356191E+01   0.4403614E-04  -0.4356191E+01   0.3000000E+00
   0.1492683E+02   0.1757143E+02   0.3134675E-04  -0.4503807E+01   0.3134675E-04  -0.4503807E+01   0.3000000E+00
   0.1492683E+02   0.1854762E+02   0.4118650E-04  -0.4385245E+01   0.4118650E-04  -0.4385245E+01   0.3000000E+00
   0.1492683E+02   0.1952381E+02   0.1968409E-04  -0.4705885E+01   0.1968409E-04  -0.4705885E+01   0.3000000E+00
   0.1492683E+02   0.2050000E+02   0.1968409E-04  -0.4705885E+01   0.1968409E-04  -0.4705885E+01   0.3000000E+00
   0.1741463E+02   0.0000000E+00   0.5421245E-04  -0.4265901E+01   0.5421245E-04  -0.4265901E+01   0.3000000E+00
   0.1741463E+02   0.9761905E+00   0.9673841E-04  -0.4014401E+01   0.9673841E-04  -0.4014401E+01   0.3000000E+00
   0.1741463E+02   0.1952381E+01   0.7720086E-04  -0.4112378E+01   0.7720086E-04  -0.4112378E+01   0.3000000E+00
   0.1741463E+02   0.2928571E+01   0.6421973E-04  -0.4192331E+01   0.6421973E-04  -0.4192331E+01   0.3000000E+00
   0.1741463E+02   0.3904762E+01   0.3514248E-04  -0.4454168E+01   0.3514248E-04  -0.4454168E+01   0.3000000E+00
   0.1741463E+02   0.4880952E+01   0.2074718E-04  -0.4683041E+01   0.2074718E-04  -0.4683041E+01   0.3000000E+00
   0.1741463E+02   0.5857143E+01   0.1752819E-04  -0.4756263E+01   0.1752819E-04  -0.4756263E+01   0.3000000E+00
   0.1741463E+02   0.6833333E+01   0.1411461E-04  -0.4850331E+01   0.1411461E-04  -0.4850331E+01   0.3000000E+00
   0.1741463E+02   0.7809524E+01   0.1377163E-04  -0.4861015E+01   0.1377163E-04  -0.4861015E+01   0.3000000E+00
   0.1741463E+02   0.8785714E+01   0.1422371E-04  -0.4846987E+01   0.1422371E-04  -0.4846987E+01   0.3000000E+00
   0.1741463E+02   0.9761905E+01   0.1147890E-04  -0.4940100E+01   0.1147890E-04  -0.4940100E+01   0.3000000E+00
   0.1741463E+02   0.1073810E+02   0.8819637E-07  -0.7054549E+01   0.8819637E-07  -0.7054549E+01   0.3000000E+00
   0.1741463E+02   0.1171429E+02   0.8371062E-07  -0.7077219E+01   0.8371062E-07  -0.7077219E+01   0.3000000E+00
   0.1741463E+02   0.1269048E+02   0.8699632E-07  -0.7060499E+01   0.8699632E-07  -0.7060499E+01   0.3000000E+00
   0.1741463E+02   0.1366667E+02   0.5022264E-07  -0.7299100E+01   0.5022264E-07  -0.7299100E+01   0.3000000E+00
   0.1741463E+02   0.1464286E+02   0.8254104E-05  -0.5083330E+01   0.8254104E-05  -0.5083330E+01   0.3000000E+00
   0.1741463E+02   0.1561905E+02   0.1819980E-04  -0.4739933E+01   0.1819980E-04  -0.4739933E+01   0.3000000E+00
   0.1741463E+02   0.1659524E+02   0.1645140E-04  -0.4783797E+01   0.1645140E-04  -0.4783797E+01   0.3000000E+00
   0.1741463E+02   0.1757143E+02   0.2425470E-04  -0.4615204E+01   0.2425470E-04  -0.4615204E+01   0.3000000E+00
   0.1741463E+02   0.1854762E+02   0.1358560E-04  -0.4866921E+01   0.1358560E-04  -0.4866921E+01   0.3000000E+00
   0.1741463E+02   0.1952381E+02   0.3530450E-04  -0.4452170E+01   0.3530450E-04  -0.4452170E+01   0.3000000E+00
   0.1741463E+02   0.2050000E+02   0.3530450E-04  -0.4452170E+01   0.3530450E-04  -0.4452170E+01   0.3000000E+00
   0.1990244E+02   0.0000000E+00   0.9819061E-04  -0.4007930E+01   0.9819061E-04  -0.4007930E+01   0.3000000E+00
   0.1990244E+02   0.9761905E+00   0.6039526E-04  -0.4218997E+01   0.6039526E-04  -0.4218997E+01   0.3000000E+00
   0.1990244E+02   0.1952381E+01   0.1538858E-03  -0.3812802E+01   0.1538858E-03  -0.3812802E+01   0.3000000E+00
   0.1990244E+02   0.2928571E+01   0.4441204E-04  -0.4352499E+01   0.4441204E-04  -0.4352499E+01   0.3000000E+00
   0.1990244E+02   0.3904762E+01   0.2722432E-04  -0.4565043E+01   0.2722432E-04  -0.4565043E+01   0.3000000E+00
   0.1990244E+02   0.4880952E+01   0.1474362E-04  -0.4831396E+01   0.1474362E-04  -0.4831396E+01   0.3000000E+00
   0.1990244E+02   0.5857143E+01   0.2317584E-04  -0.4634964E+01   0.2317584E-04  -0.4634964E+01   0.3000000E+00
   0.1990244E+02   0.6833333E+01   0.1996959E-04  -0.4699631E+01   0.1996959E-04  -0.4699631E+01   0.3000000E+00
   0.1990244E+02   0.7809524E+01   0.1167221E-04  -0.4932847E+01   0.1167221E-04  -0.4932847E+01   0.3000000E+00
   0.1990244E+02   0.8785714E+01   0.1334725E-04  -0.4874608E+01   0.1334725E-04  -0.4874608E+01   0.3000000E+00
   0.1990244E+02   0.9761905E+01   0.5428759E-05  -0.5265299E+01   0.5428759E-05  -0.5265299E+01   0.3000000E+00
   0.1990244E+02   0.1073810E+02   0.5241359E-07  -0.7280556E+01   0.5241359E-07  -0.7280556E+01   0.3000000E+00
   0.1990244E+02   0.1171429E+02   0.1229344E-07  -0.7910327E+01   0.1229344E-07  -0.7910327E+01   0.3000000E+00
   0.1990244E+02   0.1269048E+02   0.1396237E-07  -0.7855041E+01   0.1396237E-07  -0.7855041E+01   0.3000000E+00
   0.1990244E+02   0.1366667E+02   0.2642646E-07  -0.7577961E+01   0.2642646E-07  -0.7577961E+01   0.3000000E+00
   0.1990244E+02   0.1464286E+02   0.1030069E-04  -0.4987134E+01   0.1030069E-04  -0.4987134E+01   0.3000000E+00
   0.1990244E+02   0.1561905E+02   0.1168155E-04  -0.4932500E+01   0.1168155E-04  -0.4932500E+01   0.3000000E+00
   0.1990244E+02   0.1659524E+02   0.1838455E-04  -0.4735547E+01   0.1838455E-04  -0.4735547E+01   0.3000000E+00
   0.1990244E+02   0.1757143E+02   0.1724307E-04  -0.4763385E+01   0.1724307E-04  -0.4763385E+01   0.3000000E+00
   0.1990244E+02   0.1854762E+02   0.4229253E-04  -0.4373736E+01   0.4229253E-04  -0.4373736E+01   0.3000000E+00
   0.1990244E+02   0.1952381E+02   0.3337845E-04  -0.4476534E+01   0.3337845E-04  -0.4476534E+01   0.3000000E+00
   0.1990244E+02   0.2050000E+02   0.3337845E-04  -0.4476534E+01   0.3337845E-04  -0.4476534E+01   0.3000000E+00
   0.2239024E+02   0.0000000E+00   0.1934484E-03  -0.3713435E+01   0.1934484E-03  -0.3713435E+01   0.3000000E+00
   0.2239024E+02   0.9761905E+00   0.1521566E-03  -0.3817709E+01   0.1521566E-03  -0.3817709E+01   0.3000000E+00
   0.2239024E+02   0.1952381E+01   0.9916752E-04  -0.4003631E+01   0.9916752E-04  -0.4003631E+01   0.3000000E+00
   0.2239024E+02   0.2928571E+01   0.5822475E-04  -0.4234892E+01   0.5822475E-04  -0.4234892E+01   0.3000000E+00
   0.2239024E+02   0.3904762E+01   0.1721034E-04  -0.4764210E+01   0.1721034E-04  -0.4764210E+01   0.3000000E+00
   0.2239024E+02   0.4880952E+01   0.1332725E-04  -0.4875260E+01   0.1332725E-04  -0.4875260E+01   0.3000000E+00
   0.2239024E+02   0.5857143E+01   0.1934842E-04  -0.4713355E+01   0.1934842E-04  -0.4713355E+01   0.3000000E+00
   0.2239024E+02   0.6833333E+01   0.3095735E-04  -0.4509236E+01   0.3095735E-04  -0.4509236E+01   0.3000000E+00
   0.2239024E+02   0.7809524E+01   0.1158615E-04  -0.4936061E+01   0.1158615E-04  -0.4936061E+01   0.3000000E+00
   0.2239024E+02   0.8785714E+01   0.9137717E-05  -0.5039162E+01   0.9137717E-05  -0.5039162E+01   0.3000000E+00
   0.2239024E+02   0.9761905E+01   0.7342729E-05  -0.5134143E+01   0.7342729E-05  -0.5134143E+01   0.3000000E+00
   0.2239024E+02   0.1073810E+02   0.1596607E-07  -0.7796802E+01   0.1596607E-07  -0.7796802E+01   0.3000000E+00
   0.2239024E+02   0.1171429E+02   0.1764700E-07  -0.7753329E+01   0.1764700E-07  -0.7753329E+01   0.3000000E+00
   0.2239024E+02   0.1269048E+02   0.2118442E-07  -0.7673983E+01   0.2118442E-07  -0.7673983E+01   0.3000000E+00
   0.2239024E+02   0.1366667E+02   0.7842681E-07  -0.7105535E+01   0.7842681E-07  -0.7105535E+01   0.3000000E+00
   0.2239024E+02   0.1464286E+02   0.4285021E-04  -0.4368047E+01   0.4285021E-04  -0.4368047E+01   0.3000000E+00
   0.2239024E+02   0.1561905E+02   0.6156605E-04  -0.4210659E+01   0.6156605E-04  -0.4210659E+01   0.3000000E+00
   0.2239024E+02   0.1659524E+02   0.2991352E-04  -0.4524132E+01   0.2991352E-04  -0.4524132E+01   0.3000000E+00
   0.2239024E+02   0.1757143E+02   0.4367652E-04  -0.4359752E+01   0.4367652E-04  -0.4359752E+01   0.3000000E+00
   0.2239024E+02   0.1854762E+02   0.4037903E-04  -0.4393844E+01   0.4037903E-04  -0.4393844E+01   0.3000000E+00
   0.2239024E+02   0.1952381E+02   0.5728338E-04  -0.4241971E+01   0.5728338E-04  -0.4241971E+01   0.3000000E+00
   0.2239024E+02   0.2050000E+02   0.5728338E-04  -0.4241971E+01   0.5728338E-04  -0.4241971E+01   0.3000000E+00
   0.2487805E+02   0.0000000E+00   0.2828200E-03  -0.3548490E+01   0.2828200E-03  -0.3548490E+01   0.3000000E+00
   0.2487805E+02   0.9761905E+00   0.2256783E-03  -0.3646510E+01   0.2256783E-03  -0.3646510E+01   0.3000000E+00
   0.2487805E+02   0.1952381E+01   0.2559061E-03  -0.3591919E+01   0.2559061E-03  -0.3591919E+01   0.3000000E+00
   0.2487805E+02   0.2928571E+01   0.1147104E-03  -0.3940397E+01   0.1147104E-03  -0.3940397E+01   0.3000000E+00
   0.2487805E+02   0.3904762E+01   0.5001438E-04  -0.4300905E+01   0.5001438E-04  -0.4300905E+01   0.3000000E+00
   0.2487805E+02   0.4880952E+01   0.2028356E-04  -0.4692856E+01   0.2028356E-04  -0.4692856E+01   0.3000000E+00
   0.2487805E+02   0.5857143E+01   0.1322370E-04  -0.4878647E+01   0.1322370E-04  -0.4878647E+01   0.3000000E+00
   0.2487805E+02   0.6833333E+01   0.2268742E-04  -0.4644215E+01   0.2268742E-04  -0.4644215E+01   0.3000000E+00
   0.2487805E+02   0.7809524E+01   0.1599875E-04  -0.4795914E+01   0.1599875E-04  -0.4795914E+01   0.3000000E+00
   0.2487805E+02   0.8785714E+01   0.1890470E-04  -0.4723430E+01   0.1890470E-04  -0.4723430E+01   0.3000000E+00
   0.2487805E+02   0.9761905E+01   0.1534992E-04  -0.4813894E+01   0.1534992E-04  -0.4813894E+01   0.3000000E+00
   0.2487805E+02   0.1073810E+02   0.2342177E-07  -0.7630380E+01   0.2342177E-07  -0.7630380E+01   0.3000000E+00
   0.2487805E+02   0.1171429E+02   0.7053090E-08  -0.8151621E+01   0.7053090E-08  -0.8151621E+01   0.3000000E+00
   0.2487805E+02   0.1269048E+02   0.1017838E-07  -0.7992321E+01   0.1017838E-07  -0.7992321E+01   0.3000000E+00
   0.2487805E+02   0.1366667E+02   0.1271244E-06  -0.6895771E+01   0.1271244E-06  -0.6895771E+01   0.3000000E+00
   0.2487805E+02   0.1464286E+02   0.2324582E-03  -0.3633655E+01   0.2324582E-03  -0.3633655E+01   0.3000000E+00
   0.2487805E+02   0.1561905E+02   0.6003397E-04  -0.4221603E+01   0.6003397E-04  -0.4221603E+01   0.3000000E+00
   0.2487805E+02   0.1659524E+02   0.1213538E-03  -0.3915946E+01   0.1213538E-03  -0.3915946E+01   0.3000000E+00
   0.2487805E+02   0.1757143E+02   0.1283307E-03  -0.3891669E+01   0.1283307E-03  -0.3891669E+01   0.3000000E+00
   0.2487805E+02   0.1854762E+02   0.5408790E-04  -0.4266900E+01   0.5408790E-04  -0.4266900E+01   0.3000000E+00
   0.2487805E+02   0.1952381E+02   0.5219103E-04  -0.4282404E+01   0.5219103E-04  -0.4282404E+01   0.3000000E+00
   0.2487805E+02   0.2050000E+02   0.5219103E-04  -0.4282404E+01   0.5219103E-04  -0.4282404E+01   0.3000000E+00
   0.2736585E+02   0.0000000E+00   0.1287806E-03  -0.3890149E+01   0.1287806E-03  -0.3890149E+01   0.3000000E+00
   0.2736585E+02   0.9761905E+00   0.4527819E-03  -0.3344111E+01   0.4527819E-03  -0.3344111E+01   0.3000000E+00
   0.2736585E+02   0.1952381E+01   0.9170945E-03  -0.3037586E+01   0.9170945E-03  -0.3037586E+01   0.3000000E+00
   0.2736585E+02   0.2928571E+01   0.2658974E-03  -0.3575286E+01   0.2658974E-03  -0.3575286E+01   0.3000000E+00
   0.2736585E+02   0.3904762E+01   0.1119677E-03  -0.3950907E+01   0.1119677E-03  -0.3950907E+01   0.3000000E+00
   0.2736585E+02   0.4880952E+01   0.4438096E-04  -0.4352803E+01   0.4438096E-04  -0.4352803E+01   0.3000000E+00
   0.2736585E+02   0.5857143E+01   0.2791350E-04  -0.4554186E+01   0.2791350E-04  -0.4554186E+01   0.3000000E+00
   0.2736585E+02   0.6833333E+01   0.1855261E-04  -0.4731595E+01   0.1855261E-04  -0.4731595E+01   0.3000000E+00
   0.2736585E+02   0.7809524E+01   0.1688306E-04  -0.4772549E+01   0.1688306E-04  -0.4772549E+01   0.3000000E+00
   0.2736585E+02   0.8785714E+01   0.8546531E-04  -0.4068210E+01   0.8546531E-04  -0.4068210E+01   0.3000000E+00
   0.2736585E+02   0.9761905E+01   0.2420382E-04  -0.4616116E+01   0.2420382E-04  -0.4616116E+01   0.3000000E+00
   0.2736585E+02   0.1073810E+02   0.1051582E-06  -0.6978157E+01   0.1051582E-06  -0.6978157E+01   0.3000000E+00
   0.2736585E+02   0.1171429E+02   0.2056038E-07  -0.7686969E+01   0.2056038E-07  -0.7686969E+01   0.3000000E+00
   0.2736585E+02   0.1269048E+02   0.1912824E-07  -0.7718325E+01   0.1912824E-07  -0.7718325E+01   0.3000000E+00
   0.2736585E+02   0.1366667E+02   0.1355670E-06  -0.6867846E+01   0.1355670E-06  -0.6867846E+01   0.3000000E+00
   0.2736585E+02   0.1464286E+02   0.2568804E-03  -0.3590269E+01   0.2568804E-03  -0.3590269E+01   0.3000000E+00
   0.2736585E+02   0.1561905E+02   0.2001587E-03  -0.3698626E+01   0.2001587E-03  -0.3698626E+01   0.3000000E+00
   0.2736585E+02   0.1659524E+02   0.7414410E-04  -0.4129923E+01   0.7414410E-04  -0.4129923E+01   0.3000000E+00
   0.2736585E+02   0.1757143E+02   0.7342838E-04  -0.4134136E+01   0.7342838E-04  -0.4134136E+01   0.3000000E+00
   0.2736585E+02   0.1854762E+02   0.1994365E-04  -0.4700195E+01   0.1994365E-04  -0.4700195E+01   0.3000000E+00
   0.2736585E+02   0.1952381E+02   0.2720255E-04  -0.4565390E+01   0.2720255E-04  -0.4565390E+01   0.3000000E+00
   0.2736585E+02   0.2050000E+02   0.2720255E-04  -0.4565390E+01   0.2720255E-04  -0.4565390E+01   0.3000000E+00