title="2d vectors xz, t=    0.150E+03"
variables="x","z","vx","vz"
zone i=    21, j=    41, T="   0.150E+03"
  0.124390E+01  0.488044E+00  0.240541E-06 -0.547584E-08
  0.124390E+01  0.146413E+01  0.602385E-06 -0.181120E-07
  0.124390E+01  0.244022E+01  0.364532E-06 -0.276488E-07
  0.124390E+01  0.341631E+01  0.452817E-06 -0.569060E-07
  0.124390E+01  0.439240E+01  0.349279E-06 -0.512526E-07
  0.124390E+01  0.536849E+01  0.221979E-06  0.107034E-07
  0.124390E+01  0.634458E+01  0.743345E-07  0.522398E-08
  0.124390E+01  0.732067E+01  0.824653E-07 -0.194103E-08
  0.124390E+01  0.829675E+01  0.243290E-06 -0.682848E-08
  0.124390E+01  0.927284E+01  0.423669E-06 -0.522863E-08
  0.124390E+01  0.102489E+02  0.356579E-06  0.104986E-08
  0.124390E+01  0.112250E+02  0.415834E-09 -0.156708E-11
  0.124390E+01  0.122011E+02  0.119829E-09  0.737835E-10
  0.124390E+01  0.131772E+02  0.412761E-09  0.200977E-09
  0.124390E+01  0.141533E+02  0.772740E-09  0.362374E-09
  0.124390E+01  0.151294E+02  0.419193E-08 -0.294485E-09
  0.124390E+01  0.161055E+02  0.137726E-05 -0.522376E-07
  0.124390E+01  0.170816E+02  0.940467E-06 -0.310885E-07
  0.124390E+01  0.180576E+02  0.869657E-06 -0.313132E-07
  0.124390E+01  0.190337E+02  0.785104E-06  0.215830E-07
  0.124390E+01  0.200098E+02  0.829411E-06  0.218046E-06
  0.373171E+01  0.487847E+00  0.384539E-06 -0.326196E-07
  0.373171E+01  0.146354E+01  0.730504E-06 -0.843286E-07
  0.373171E+01  0.243924E+01  0.692925E-06 -0.139787E-06
  0.373171E+01  0.341493E+01  0.490747E-06 -0.116861E-06
  0.373171E+01  0.439062E+01  0.124604E-06 -0.419285E-07
  0.373171E+01  0.536632E+01  0.118608E-06 -0.263581E-07
  0.373171E+01  0.634201E+01  0.153621E-06 -0.160913E-07
  0.373171E+01  0.731771E+01  0.148994E-06 -0.379756E-07
  0.373171E+01  0.829340E+01  0.396125E-06 -0.913587E-07
  0.373171E+01  0.926909E+01  0.396672E-06 -0.885748E-07
  0.373171E+01  0.102448E+02  0.408007E-06 -0.257247E-07
  0.373171E+01  0.112205E+02  0.172648E-10  0.253495E-10
  0.373171E+01  0.121962E+02  0.345678E-10  0.507454E-10
  0.373171E+01  0.131719E+02  0.613734E-10  0.751092E-10
  0.373171E+01  0.141476E+02  0.167841E-09  0.240588E-09
  0.373171E+01  0.151233E+02  0.684931E-06 -0.113571E-06
  0.373171E+01  0.160990E+02  0.158760E-05 -0.179158E-06
  0.373171E+01  0.170746E+02  0.121648E-05 -0.146558E-06
  0.373171E+01  0.180503E+02  0.847504E-06 -0.301694E-07
  0.373171E+01  0.190260E+02  0.349833E-06  0.195946E-07
  0.373171E+01  0.200017E+02  0.101567E-05 -0.291757E-07
  0.621951E+01  0.487699E+00  0.829182E-06 -0.819623E-07
  0.621951E+01  0.146310E+01  0.101180E-05 -0.136132E-06
  0.621951E+01  0.243850E+01  0.716785E-06 -0.861885E-07
  0.621951E+01  0.341389E+01  0.359426E-06 -0.593460E-07
  0.621951E+01  0.438929E+01  0.198495E-06 -0.732852E-07
  0.621951E+01  0.536469E+01  0.155324E-06 -0.990677E-07
  0.621951E+01  0.634009E+01  0.140873E-06 -0.112736E-06
  0.621951E+01  0.731549E+01  0.234826E-06 -0.100325E-06
  0.621951E+01  0.829088E+01  0.479910E-06 -0.425219E-07
  0.621951E+01  0.926628E+01  0.349487E-06 -0.277580E-07
  0.621951E+01  0.102417E+02  0.283518E-06 -0.245168E-07
  0.621951E+01  0.112171E+02  0.138704E-10  0.605969E-10
  0.621951E+01  0.121925E+02  0.542066E-11  0.597420E-10
  0.621951E+01  0.131679E+02  0.207254E-10  0.940278E-10
  0.621951E+01  0.141433E+02  0.367186E-10  0.969777E-10
  0.621951E+01  0.151187E+02  0.952214E-06  0.577772E-07
  0.621951E+01  0.160941E+02  0.242602E-05  0.213488E-06
  0.621951E+01  0.170695E+02  0.107802E-05  0.246637E-06
  0.621951E+01  0.180449E+02  0.851210E-06  0.134288E-06
  0.621951E+01  0.190203E+02  0.897927E-06  0.175905E-07
  0.621951E+01  0.199957E+02  0.108777E-05 -0.393569E-07
  0.870732E+01  0.487595E+00  0.112238E-05 -0.403021E-08
  0.870732E+01  0.146279E+01  0.822147E-06 -0.475032E-07
  0.870732E+01  0.243798E+01  0.718654E-06 -0.604719E-07
  0.870732E+01  0.341317E+01  0.337197E-06 -0.417226E-07
  0.870732E+01  0.438836E+01  0.272734E-06 -0.624212E-07
  0.870732E+01  0.536355E+01  0.195431E-06 -0.659355E-07
  0.870732E+01  0.633874E+01  0.828978E-07 -0.556330E-07
  0.870732E+01  0.731393E+01  0.148290E-06 -0.605627E-07
  0.870732E+01  0.828912E+01  0.140416E-06 -0.320366E-07
  0.870732E+01  0.926431E+01  0.593222E-06  0.178563E-07
  0.870732E+01  0.102395E+02  0.260330E-06  0.146037E-07
  0.870732E+01  0.112147E+02  0.815856E-10  0.101461E-09
  0.870732E+01  0.121899E+02  0.171110E-10  0.531357E-10
  0.870732E+01  0.131651E+02  0.263359E-10  0.923262E-10
  0.870732E+01  0.141403E+02  0.403505E-10  0.989165E-10
  0.870732E+01  0.151154E+02  0.690298E-06  0.242504E-07
  0.870732E+01  0.160906E+02  0.132295E-05  0.170896E-06
  0.870732E+01  0.170658E+02  0.115428E-05  0.432488E-06
  0.870732E+01  0.180410E+02  0.184007E-05  0.558815E-06
  0.870732E+01  0.190162E+02  0.170392E-05  0.242800E-06
  0.870732E+01  0.199914E+02  0.776491E-06  0.411585E-08
  0.111951E+02  0.487509E+00  0.809627E-06  0.669076E-07
  0.111951E+02  0.146253E+01  0.119631E-05  0.139588E-06
  0.111951E+02  0.243754E+01  0.742389E-06  0.409741E-07
  0.111951E+02  0.341256E+01  0.484590E-06 -0.408019E-08
  0.111951E+02  0.438758E+01  0.275657E-06 -0.208085E-07
  0.111951E+02  0.536260E+01  0.249911E-06 -0.416663E-07
  0.111951E+02  0.633761E+01  0.142969E-06 -0.615270E-07
  0.111951E+02  0.731263E+01  0.682893E-07 -0.421378E-07
  0.111951E+02  0.828765E+01  0.165741E-06 -0.426577E-07
  0.111951E+02  0.926267E+01  0.319646E-06 -0.145302E-07
  0.111951E+02  0.102377E+02  0.388416E-06  0.854335E-08
  0.111951E+02  0.112127E+02  0.765645E-10  0.111552E-09
  0.111951E+02  0.121877E+02  0.199129E-09  0.195800E-09
  0.111951E+02  0.131627E+02  0.455648E-10  0.108610E-09
  0.111951E+02  0.141378E+02  0.331881E-10  0.665357E-10
  0.111951E+02  0.151128E+02  0.606997E-06 -0.140369E-07
  0.111951E+02  0.160878E+02  0.112435E-05 -0.870080E-07
  0.111951E+02  0.170628E+02  0.101501E-05 -0.160636E-06
  0.111951E+02  0.180378E+02  0.120915E-05 -0.153095E-06
  0.111951E+02  0.190128E+02  0.207279E-05 -0.307872E-07
  0.111951E+02  0.199879E+02  0.931156E-06  0.561871E-08
  0.136829E+02  0.487442E+00  0.709473E-06 -0.725695E-08
  0.136829E+02  0.146233E+01  0.105470E-05  0.851569E-07
  0.136829E+02  0.243721E+01  0.141702E-05  0.249912E-06
  0.136829E+02  0.341209E+01  0.601669E-06  0.177671E-06
  0.136829E+02  0.438698E+01  0.417525E-06  0.824039E-07
  0.136829E+02  0.536186E+01  0.308682E-06  0.481966E-08
  0.136829E+02  0.633675E+01  0.152113E-06 -0.130571E-07
  0.136829E+02  0.731163E+01  0.656938E-07 -0.226693E-07
  0.136829E+02  0.828651E+01  0.108860E-06 -0.345161E-07
  0.136829E+02  0.926140E+01  0.283500E-06 -0.214618E-07
  0.136829E+02  0.102363E+02  0.381445E-06 -0.741674E-10
  0.136829E+02  0.112112E+02  0.344372E-09  0.418719E-09
  0.136829E+02  0.121861E+02  0.389143E-09  0.448444E-09
  0.136829E+02  0.131609E+02  0.116766E-09  0.186338E-09
  0.136829E+02  0.141358E+02  0.858374E-10  0.101386E-09
  0.136829E+02  0.151107E+02  0.514875E-06 -0.990718E-08
  0.136829E+02  0.160856E+02  0.140099E-05 -0.686768E-07
  0.136829E+02  0.170605E+02  0.962548E-06 -0.120624E-06
  0.136829E+02  0.180354E+02  0.103030E-05 -0.114413E-06
  0.136829E+02  0.190102E+02  0.106236E-05 -0.598968E-07
  0.136829E+02  0.199851E+02  0.604991E-06 -0.328924E-07
  0.161707E+02  0.487157E+00  0.763033E-06  0.187280E-07
  0.161707E+02  0.146147E+01  0.826349E-06 -0.465617E-08
  0.161707E+02  0.243578E+01  0.933441E-06 -0.197649E-07
  0.161707E+02  0.341010E+01  0.553657E-06  0.184548E-07
  0.161707E+02  0.438441E+01  0.690772E-06  0.119672E-08
  0.161707E+02  0.535872E+01  0.428283E-06  0.219381E-07
  0.161707E+02  0.633304E+01  0.154061E-06  0.137924E-07
  0.161707E+02  0.730735E+01  0.190097E-06 -0.107942E-07
  0.161707E+02  0.828166E+01  0.126097E-06 -0.335385E-07
  0.161707E+02  0.925598E+01  0.154336E-06 -0.340317E-07
  0.161707E+02  0.102303E+02  0.300400E-06 -0.209378E-07
  0.161707E+02  0.112046E+02  0.204246E-08  0.194918E-08
  0.161707E+02  0.121789E+02  0.509244E-09  0.674235E-09
  0.161707E+02  0.131532E+02  0.542670E-09  0.715586E-09
  0.161707E+02  0.141275E+02  0.405851E-09  0.428429E-09
  0.161707E+02  0.151019E+02  0.439974E-06  0.911021E-08
  0.161707E+02  0.160762E+02  0.114297E-05  0.657407E-07
  0.161707E+02  0.170505E+02  0.857172E-06  0.795129E-07
  0.161707E+02  0.180248E+02  0.668375E-06  0.155900E-07
  0.161707E+02  0.189991E+02  0.936610E-06  0.499066E-07
  0.161707E+02  0.199734E+02  0.483622E-06  0.248994E-07
  0.186585E+02  0.486689E+00  0.776502E-06 -0.716428E-08
  0.186585E+02  0.146007E+01  0.131415E-05 -0.107904E-07
  0.186585E+02  0.243344E+01  0.105028E-05 -0.601005E-07
  0.186585E+02  0.340682E+01  0.864550E-06 -0.163668E-06
  0.186585E+02  0.438020E+01  0.475015E-06 -0.586003E-07
  0.186585E+02  0.535358E+01  0.291198E-06  0.181931E-08
  0.186585E+02  0.632695E+01  0.246386E-06  0.127888E-07
  0.186585E+02  0.730033E+01  0.193949E-06 -0.985476E-08
  0.186585E+02  0.827371E+01  0.183050E-06 -0.278560E-07
  0.186585E+02  0.924709E+01  0.192560E-06 -0.467792E-07
  0.186585E+02  0.102205E+02  0.162067E-06 -0.207854E-07
  0.186585E+02  0.111938E+02  0.124131E-08  0.156226E-08
  0.186585E+02  0.121672E+02  0.109345E-08  0.209444E-08
  0.186585E+02  0.131406E+02  0.126323E-08  0.233205E-08
  0.186585E+02  0.141140E+02  0.121135E-08  0.185400E-08
  0.186585E+02  0.150874E+02  0.253266E-06 -0.764118E-08
  0.186585E+02  0.160607E+02  0.529573E-06 -0.562141E-08
  0.186585E+02  0.170341E+02  0.444037E-06  0.303177E-07
  0.186585E+02  0.180075E+02  0.625269E-06  0.512229E-07
  0.186585E+02  0.189809E+02  0.342837E-06  0.249336E-07
  0.186585E+02  0.199542E+02  0.826885E-06  0.240477E-07
  0.211463E+02  0.486326E+00  0.138033E-05 -0.956490E-07
  0.211463E+02  0.145898E+01  0.834514E-06 -0.107146E-06
  0.211463E+02  0.243163E+01  0.199894E-05 -0.182125E-06
  0.211463E+02  0.340428E+01  0.581376E-06 -0.100009E-06
  0.211463E+02  0.437693E+01  0.354855E-06 -0.536613E-07
  0.211463E+02  0.534959E+01  0.180888E-06 -0.355907E-08
  0.211463E+02  0.632224E+01  0.277365E-06  0.794421E-08
  0.211463E+02  0.729489E+01  0.241916E-06 -0.148633E-07
  0.211463E+02  0.826754E+01  0.146069E-06 -0.245620E-07
  0.211463E+02  0.924019E+01  0.176123E-06 -0.111845E-07
  0.211463E+02  0.102128E+02  0.771791E-07 -0.901735E-09
  0.211463E+02  0.111855E+02  0.842036E-09  0.108474E-08
  0.211463E+02  0.121581E+02  0.293466E-09  0.484982E-09
  0.211463E+02  0.131308E+02  0.435714E-09  0.487397E-09
  0.211463E+02  0.141035E+02  0.651060E-09  0.967424E-09
  0.211463E+02  0.150761E+02  0.182518E-06 -0.154420E-07
  0.211463E+02  0.160488E+02  0.214065E-06 -0.262061E-07
  0.211463E+02  0.170214E+02  0.327437E-06 -0.538520E-07
  0.211463E+02  0.179941E+02  0.274995E-06 -0.168680E-07
  0.211463E+02  0.189667E+02  0.598391E-06 -0.451443E-07
  0.211463E+02  0.199394E+02  0.468866E-06 -0.439227E-07
  0.236341E+02  0.486023E+00  0.160312E-05 -0.465116E-07
  0.236341E+02  0.145807E+01  0.137547E-05 -0.182074E-06
  0.236341E+02  0.243011E+01  0.101500E-05 -0.814498E-07
  0.236341E+02  0.340216E+01  0.634014E-06 -0.398176E-07
  0.236341E+02  0.437421E+01  0.196915E-06 -0.390634E-07
  0.236341E+02  0.534625E+01  0.150502E-06 -0.304435E-07
  0.236341E+02  0.631830E+01  0.201804E-06 -0.114797E-07
  0.236341E+02  0.729034E+01  0.320872E-06  0.123781E-07
  0.236341E+02  0.826239E+01  0.133844E-06  0.941724E-08
  0.236341E+02  0.923444E+01  0.117437E-06  0.120116E-07
  0.236341E+02  0.102065E+02  0.966843E-07  0.809653E-08
  0.236341E+02  0.111785E+02  0.241844E-09  0.466774E-09
  0.236341E+02  0.121506E+02  0.240182E-09  0.829118E-09
  0.236341E+02  0.131226E+02  0.206143E-09  0.767923E-09
  0.236341E+02  0.140947E+02  0.594173E-09  0.101677E-08
  0.236341E+02  0.150667E+02  0.242212E-06 -0.202240E-07
  0.236341E+02  0.160388E+02  0.352539E-06 -0.943249E-07
  0.236341E+02  0.170108E+02  0.199894E-06 -0.751544E-07
  0.236341E+02  0.179828E+02  0.352833E-06 -0.113140E-06
  0.236341E+02  0.189549E+02  0.348206E-06 -0.107665E-06
  0.236341E+02  0.199269E+02  0.476563E-06 -0.433651E-07
  0.261220E+02  0.485894E+00  0.149534E-05  0.166448E-06
  0.261220E+02  0.145768E+01  0.128316E-05  0.208022E-06
  0.261220E+02  0.242947E+01  0.147084E-05  0.712356E-07
  0.261220E+02  0.340126E+01  0.661274E-06 -0.755162E-08
  0.261220E+02  0.437304E+01  0.308175E-06 -0.228698E-07
  0.261220E+02  0.534483E+01  0.148250E-06 -0.312772E-07
  0.261220E+02  0.631662E+01  0.112428E-06 -0.648768E-08
  0.261220E+02  0.728841E+01  0.202768E-06  0.282592E-07
  0.261220E+02  0.826019E+01  0.147712E-06  0.601958E-07
  0.261220E+02  0.923198E+01  0.172861E-06  0.277048E-07
  0.261220E+02  0.102038E+02  0.130409E-06  0.154554E-08
  0.261220E+02  0.111756E+02  0.866766E-10  0.539572E-09
  0.261220E+02  0.121473E+02  0.210473E-10  0.334525E-09
  0.261220E+02  0.131191E+02  0.605431E-10  0.340763E-09
  0.261220E+02  0.140909E+02  0.533477E-09  0.730306E-09
  0.261220E+02  0.150627E+02  0.793828E-06 -0.407620E-07
  0.261220E+02  0.160345E+02  0.224777E-06 -0.478843E-07
  0.261220E+02  0.170063E+02  0.441973E-06 -0.128780E-06
  0.261220E+02  0.179781E+02  0.441940E-06 -0.125307E-06
  0.261220E+02  0.189499E+02  0.210456E-06 -0.941611E-07
  0.261220E+02  0.199216E+02  0.234901E-06 -0.469980E-07
  0.286098E+02  0.485812E+00  0.382431E-06  0.704287E-07
  0.286098E+02  0.145744E+01  0.108205E-05  0.226144E-06
  0.286098E+02  0.242906E+01  0.202113E-05  0.351224E-06
  0.286098E+02  0.340069E+01  0.679376E-06  0.205498E-06
  0.286098E+02  0.437231E+01  0.358842E-06  0.155041E-06
  0.286098E+02  0.534393E+01  0.199719E-06  0.127374E-06
  0.286098E+02  0.631556E+01  0.168510E-06  0.582716E-07
  0.286098E+02  0.728718E+01  0.128392E-06  0.379460E-07
  0.286098E+02  0.825881E+01  0.111749E-06  0.497732E-07
  0.286098E+02  0.923043E+01  0.518678E-06  0.550719E-07
  0.286098E+02  0.102021E+02  0.155678E-06  0.465721E-08
  0.286098E+02  0.111737E+02  0.109655E-08  0.219812E-08
  0.286098E+02  0.121453E+02  0.172024E-09  0.873105E-09
  0.286098E+02  0.131169E+02  0.419148E-10  0.578354E-09
  0.286098E+02  0.140886E+02  0.377925E-09  0.818527E-09
  0.286098E+02  0.150602E+02  0.965889E-06  0.546814E-08
  0.286098E+02  0.160318E+02  0.739255E-06 -0.644959E-07
  0.286098E+02  0.170034E+02  0.312194E-06 -0.351361E-07
  0.286098E+02  0.179751E+02  0.364039E-06 -0.116503E-07
  0.286098E+02  0.189467E+02  0.111904E-06  0.516477E-08
  0.286098E+02  0.199183E+02  0.165941E-06 -0.235686E-08
  0.310976E+02  0.485685E+00  0.362883E-06 -0.348835E-07
  0.310976E+02  0.145706E+01  0.866364E-06  0.876189E-08
  0.310976E+02  0.242843E+01  0.921560E-06  0.155534E-06
  0.310976E+02  0.339980E+01  0.107304E-05  0.454842E-06
  0.310976E+02  0.437117E+01  0.373557E-06  0.363418E-06
  0.310976E+02  0.534254E+01  0.277088E-06  0.291991E-06
  0.310976E+02  0.631391E+01  0.385215E-06  0.268108E-06
  0.310976E+02  0.728528E+01  0.329178E-06  0.161019E-06
  0.310976E+02  0.825665E+01  0.238262E-06  0.613510E-07
  0.310976E+02  0.922802E+01  0.471520E-06  0.334781E-07
  0.310976E+02  0.101994E+02  0.348208E-06  0.329212E-07
  0.310976E+02  0.111708E+02  0.389527E-09  0.202577E-08
  0.310976E+02  0.121421E+02  0.154046E-08  0.416361E-08
  0.310976E+02  0.131135E+02  0.943701E-09  0.213487E-08
  0.310976E+02  0.140849E+02  0.123353E-08  0.130159E-08
  0.310976E+02  0.150562E+02  0.148083E-05  0.893403E-08
  0.310976E+02  0.160276E+02  0.838375E-06  0.733376E-07
  0.310976E+02  0.169990E+02  0.362779E-06  0.492816E-07
  0.310976E+02  0.179704E+02  0.364706E-06  0.512282E-07
  0.310976E+02  0.189417E+02  0.147133E-06  0.337737E-07
  0.310976E+02  0.199131E+02  0.313441E-06  0.463429E-08
  0.335854E+02  0.485461E+00  0.552556E-06  0.330016E-08
  0.335854E+02  0.145638E+01  0.428572E-06  0.520315E-07
  0.335854E+02  0.242731E+01  0.889530E-06  0.207149E-06
  0.335854E+02  0.339823E+01  0.408361E-06  0.177313E-06
  0.335854E+02  0.436915E+01  0.331157E-06  0.286261E-06
  0.335854E+02  0.534008E+01  0.447915E-06  0.308984E-06
  0.335854E+02  0.631100E+01  0.443639E-06  0.221136E-06
  0.335854E+02  0.728192E+01  0.640915E-06  0.209178E-06
  0.335854E+02  0.825284E+01  0.549952E-06  0.729603E-07
  0.335854E+02  0.922377E+01  0.517086E-06 -0.196110E-07
  0.335854E+02  0.101947E+02  0.293888E-06 -0.808118E-08
  0.335854E+02  0.111656E+02  0.497083E-09  0.465916E-08
  0.335854E+02  0.121365E+02  0.447478E-09  0.241328E-08
  0.335854E+02  0.131075E+02  0.271844E-08  0.725841E-08
  0.335854E+02  0.140784E+02  0.827695E-08  0.848439E-08
  0.335854E+02  0.150493E+02  0.182054E-05  0.780064E-07
  0.335854E+02  0.160202E+02  0.933288E-06  0.200657E-06
  0.335854E+02  0.169911E+02  0.886851E-06  0.266371E-06
  0.335854E+02  0.179621E+02  0.416042E-06  0.109056E-06
  0.335854E+02  0.189330E+02  0.446517E-06  0.860920E-07
  0.335854E+02  0.199039E+02  0.521706E-06  0.141842E-07
  0.360732E+02  0.485248E+00  0.396822E-06  0.486443E-07
  0.360732E+02  0.145574E+01  0.365248E-06  0.123005E-06
  0.360732E+02  0.242624E+01  0.294485E-06  0.214065E-06
  0.360732E+02  0.339674E+01  0.451032E-06  0.352322E-06
  0.360732E+02  0.436723E+01  0.215954E-06  0.190786E-06
  0.360732E+02  0.533773E+01  0.519022E-06  0.244378E-06
  0.360732E+02  0.630822E+01  0.743473E-06  0.197541E-06
  0.360732E+02  0.727872E+01  0.658025E-06  0.885707E-07
  0.360732E+02  0.824921E+01  0.809169E-06  0.103300E-06
  0.360732E+02  0.921971E+01  0.450233E-06  0.771033E-07
  0.360732E+02  0.101902E+02  0.279367E-06  0.378877E-07
  0.360732E+02  0.111607E+02  0.103436E-08  0.102153E-07
  0.360732E+02  0.121312E+02  0.168859E-08  0.121826E-07
  0.360732E+02  0.131017E+02  0.152529E-08  0.806565E-08
  0.360732E+02  0.140722E+02  0.973818E-08  0.190893E-07
  0.360732E+02  0.150427E+02  0.139431E-05  0.149579E-06
  0.360732E+02  0.160132E+02  0.881533E-06  0.129186E-06
  0.360732E+02  0.169837E+02  0.684947E-06  0.762764E-07
  0.360732E+02  0.179542E+02  0.119741E-05  0.202944E-06
  0.360732E+02  0.189247E+02  0.629158E-06  0.908082E-07
  0.360732E+02  0.198952E+02  0.837978E-06  0.243430E-07
  0.385610E+02  0.484913E+00  0.178841E-06  0.891511E-08
  0.385610E+02  0.145474E+01  0.135488E-06  0.401001E-07
  0.385610E+02  0.242456E+01  0.652302E-07  0.532439E-07
  0.385610E+02  0.339439E+01  0.166326E-06  0.837322E-07
  0.385610E+02  0.436421E+01  0.470107E-06  0.195126E-06
  0.385610E+02  0.533404E+01  0.563733E-06  0.154456E-06
  0.385610E+02  0.630386E+01  0.922936E-06  0.153840E-06
  0.385610E+02  0.727369E+01  0.494206E-06  0.176109E-06
  0.385610E+02  0.824351E+01  0.655665E-06  0.164879E-06
  0.385610E+02  0.921334E+01  0.531680E-06  0.179285E-06
  0.385610E+02  0.101832E+02  0.654891E-06  0.116063E-06
  0.385610E+02  0.111530E+02  0.391495E-08  0.304794E-07
  0.385610E+02  0.121228E+02  0.751255E-08  0.271713E-07
  0.385610E+02  0.130926E+02  0.100536E-07  0.268124E-07
  0.385610E+02  0.140625E+02  0.755832E-08  0.167681E-07
  0.385610E+02  0.150323E+02  0.119549E-05 -0.174700E-07
  0.385610E+02  0.160021E+02  0.209905E-05 -0.186314E-06
  0.385610E+02  0.169719E+02  0.105590E-05 -0.231048E-06
  0.385610E+02  0.179418E+02  0.926486E-06 -0.812368E-07
  0.385610E+02  0.189116E+02  0.113429E-05  0.124376E-07
  0.385610E+02  0.198814E+02  0.131911E-05 -0.566228E-08
  0.410488E+02  0.484606E+00  0.115183E-06  0.528337E-08
  0.410488E+02  0.145382E+01  0.477352E-07  0.539274E-08
  0.410488E+02  0.242303E+01  0.626856E-07  0.120217E-07
  0.410488E+02  0.339224E+01  0.176965E-06  0.164442E-07
  0.410488E+02  0.436146E+01  0.419959E-06  0.360453E-07
  0.410488E+02  0.533067E+01  0.459763E-06  0.129031E-06
  0.410488E+02  0.629988E+01  0.698355E-06  0.200550E-06
  0.410488E+02  0.726909E+01  0.547487E-06  0.216755E-06
  0.410488E+02  0.823830E+01  0.910394E-06  0.199781E-06
  0.410488E+02  0.920752E+01  0.721673E-06  0.174761E-06
  0.410488E+02  0.101767E+02  0.133256E-05  0.100282E-06
  0.410488E+02  0.111459E+02  0.415920E-08  0.360035E-07
  0.410488E+02  0.121152E+02  0.106501E-07  0.373005E-07
  0.410488E+02  0.130844E+02  0.127738E-07  0.400294E-07
  0.410488E+02  0.140536E+02  0.109419E-07  0.452819E-07
  0.410488E+02  0.150228E+02  0.253408E-05 -0.221883E-06
  0.410488E+02  0.159920E+02  0.199911E-05 -0.248191E-06
  0.410488E+02  0.169612E+02  0.699756E-06 -0.340181E-07
  0.410488E+02  0.179304E+02  0.111129E-05 -0.342272E-07
  0.410488E+02  0.188996E+02  0.101786E-05 -0.367841E-07
  0.410488E+02  0.198689E+02  0.141026E-05 -0.215973E-07
  0.435366E+02  0.483750E+00  0.102284E-06 -0.208610E-08
  0.435366E+02  0.145125E+01  0.109464E-06 -0.127124E-07
  0.435366E+02  0.241875E+01  0.478117E-07 -0.184386E-07
  0.435366E+02  0.338625E+01  0.163153E-06 -0.328767E-07
  0.435366E+02  0.435375E+01  0.185288E-06  0.563526E-08
  0.435366E+02  0.532125E+01  0.200176E-06  0.365058E-07
  0.435366E+02  0.628875E+01  0.490966E-06  0.874786E-07
  0.435366E+02  0.725625E+01  0.808271E-06  0.133127E-06
  0.435366E+02  0.822375E+01  0.120557E-05  0.893951E-07
  0.435366E+02  0.919125E+01  0.146210E-05 -0.756096E-07
  0.435366E+02  0.101588E+02  0.109422E-05 -0.997251E-07
  0.435366E+02  0.111263E+02  0.146073E-09  0.199233E-08
  0.435366E+02  0.120938E+02  0.143082E-08  0.137489E-07
  0.435366E+02  0.130613E+02  0.110426E-08  0.182096E-07
  0.435366E+02  0.140288E+02  0.144597E-08  0.135953E-07
  0.435366E+02  0.149963E+02  0.393331E-05  0.402595E-07
  0.435366E+02  0.159638E+02  0.126360E-05  0.164325E-06
  0.435366E+02  0.169313E+02  0.110706E-05  0.254269E-06
  0.435366E+02  0.178988E+02  0.142339E-05  0.183318E-06
  0.435366E+02  0.188663E+02  0.143902E-05  0.654786E-07
  0.435366E+02  0.198338E+02  0.155045E-05 -0.175116E-07
  0.460244E+02  0.483336E+00  0.169282E-06 -0.186640E-07
  0.460244E+02  0.145001E+01  0.927264E-07 -0.311484E-07
  0.460244E+02  0.241668E+01  0.113835E-06 -0.473084E-07
  0.460244E+02  0.338335E+01  0.766116E-07 -0.328001E-07
  0.460244E+02  0.435002E+01  0.131507E-06 -0.360908E-07
  0.460244E+02  0.531670E+01  0.180483E-06 -0.353215E-07
  0.460244E+02  0.628337E+01  0.545514E-06 -0.503860E-07
  0.460244E+02  0.725004E+01  0.564786E-06 -0.596728E-07
  0.460244E+02  0.821671E+01  0.103806E-05 -0.775345E-07
  0.460244E+02  0.918339E+01  0.148931E-05 -0.584257E-08
  0.460244E+02  0.101501E+02  0.603304E-06  0.296511E-07
  0.460244E+02  0.111167E+02  0.220891E-10  0.171580E-07
  0.460244E+02  0.120834E+02 -0.149041E-08  0.135686E-07
  0.460244E+02  0.130501E+02  0.939359E-09  0.613576E-08
  0.460244E+02  0.140167E+02  0.204772E-08  0.822995E-08
  0.460244E+02  0.149834E+02  0.287758E-05  0.403474E-06
  0.460244E+02  0.159501E+02  0.159890E-05  0.422804E-06
  0.460244E+02  0.169168E+02  0.116261E-05  0.218944E-06
  0.460244E+02  0.178834E+02  0.152812E-05  0.173512E-06
  0.460244E+02  0.188501E+02  0.148702E-05  0.105750E-06
  0.460244E+02  0.198168E+02  0.154221E-05  0.391642E-07
  0.485122E+02  0.482985E+00  0.293545E-06 -0.170972E-07
  0.485122E+02  0.144895E+01  0.133566E-06 -0.419044E-07
  0.485122E+02  0.241492E+01  0.118133E-06 -0.441180E-07
  0.485122E+02  0.338089E+01  0.106982E-06 -0.670308E-07
  0.485122E+02  0.434686E+01  0.113184E-06 -0.585405E-07
  0.485122E+02  0.531283E+01  0.167059E-06 -0.696712E-07
  0.485122E+02  0.627880E+01  0.495283E-06 -0.137530E-06
  0.485122E+02  0.724477E+01  0.719375E-06 -0.218423E-06
  0.485122E+02  0.821074E+01  0.775930E-06 -0.205176E-06
  0.485122E+02  0.917671E+01  0.514133E-06 -0.898850E-07
  0.485122E+02  0.101427E+02  0.804534E-06  0.130750E-07
  0.485122E+02  0.111086E+02  0.105303E-08  0.932867E-08
  0.485122E+02  0.120746E+02  0.456002E-08  0.120741E-07
  0.485122E+02  0.130406E+02  0.263976E-08  0.119275E-07
  0.485122E+02  0.140066E+02  0.473996E-08  0.149581E-07
  0.485122E+02  0.149725E+02  0.101916E-05  0.614366E-07
  0.485122E+02  0.159385E+02  0.229207E-05  0.293047E-06
  0.485122E+02  0.169045E+02  0.110454E-05  0.201271E-06
  0.485122E+02  0.178704E+02  0.153917E-05  0.137619E-06
  0.485122E+02  0.188364E+02  0.129354E-05  0.496105E-07
  0.485122E+02  0.198024E+02  0.165438E-05 -0.196310E-07
  0.510000E+02  0.482737E+00  0.347922E-06 -0.920787E-08
  0.510000E+02  0.144821E+01  0.189021E-06 -0.286535E-07
  0.510000E+02  0.241368E+01  0.178953E-06 -0.497997E-07
  0.510000E+02  0.337916E+01  0.823026E-07 -0.466162E-07
  0.510000E+02  0.434463E+01  0.967026E-07 -0.553913E-07
  0.510000E+02  0.531011E+01  0.288379E-06 -0.994608E-07
  0.510000E+02  0.627558E+01  0.403942E-06 -0.119639E-06
  0.510000E+02  0.724105E+01  0.614583E-06 -0.170489E-06
  0.510000E+02  0.820653E+01  0.477401E-06 -0.916703E-07
  0.510000E+02  0.917200E+01  0.385244E-06 -0.658814E-07
  0.510000E+02  0.101375E+02  0.257245E-06 -0.143799E-07
  0.510000E+02  0.111029E+02  0.211273E-08  0.168535E-07
  0.510000E+02  0.120684E+02  0.161298E-08  0.151037E-07
  0.510000E+02  0.130339E+02 -0.849373E-09  0.285871E-07
  0.510000E+02  0.139994E+02  0.142682E-08  0.409318E-07
  0.510000E+02  0.149648E+02  0.124593E-05  0.127708E-07
  0.510000E+02  0.159303E+02  0.119908E-05  0.398711E-07
  0.510000E+02  0.168958E+02  0.120789E-05  0.941583E-07
  0.510000E+02  0.178613E+02  0.125726E-05  0.973686E-08
  0.510000E+02  0.188267E+02  0.153083E-05 -0.600923E-07
  0.510000E+02  0.197922E+02  0.899017E-06 -0.307754E-07
  0.534878E+02  0.482416E+00  0.368463E-06  0.457791E-08
  0.534878E+02  0.144725E+01  0.183647E-06 -0.889664E-08
  0.534878E+02  0.241208E+01  0.164206E-06 -0.205007E-07
  0.534878E+02  0.337691E+01  0.182226E-06 -0.401454E-07
  0.534878E+02  0.434174E+01  0.133942E-06 -0.639508E-07
  0.534878E+02  0.530658E+01  0.164433E-06 -0.568622E-07
  0.534878E+02  0.627141E+01  0.622136E-06 -0.654820E-07
  0.534878E+02  0.723624E+01  0.321751E-06 -0.315295E-07
  0.534878E+02  0.820107E+01  0.283260E-06 -0.234890E-07
  0.534878E+02  0.916590E+01  0.269016E-06 -0.812763E-08
  0.534878E+02  0.101307E+02  0.155695E-06  0.128162E-07
  0.534878E+02  0.110956E+02  0.248284E-09  0.156317E-07
  0.534878E+02  0.120604E+02 -0.353811E-08  0.278591E-07
  0.534878E+02  0.130252E+02 -0.496520E-08  0.210069E-07
  0.534878E+02  0.139901E+02 -0.711324E-09  0.156539E-07
  0.534878E+02  0.149549E+02  0.950480E-06  0.467030E-07
  0.534878E+02  0.159197E+02  0.112187E-05  0.703255E-07
  0.534878E+02  0.168846E+02  0.113970E-05  0.372770E-07
  0.534878E+02  0.178494E+02  0.164579E-05  0.240276E-08
  0.534878E+02  0.188142E+02  0.115770E-05 -0.225580E-07
  0.534878E+02  0.197791E+02  0.105797E-05 -0.336225E-07
  0.559756E+02  0.482092E+00  0.255412E-06  0.324759E-08
  0.559756E+02  0.144628E+01  0.269739E-06  0.154895E-08
  0.559756E+02  0.241046E+01  0.167153E-06 -0.274665E-07
  0.559756E+02  0.337465E+01  0.173962E-06 -0.455842E-07
  0.559756E+02  0.433883E+01  0.162774E-06 -0.239950E-07
  0.559756E+02  0.530301E+01  0.137858E-06 -0.210889E-07
  0.559756E+02  0.626720E+01  0.332970E-06 -0.543596E-08
  0.559756E+02  0.723138E+01  0.373550E-06  0.233892E-07
  0.559756E+02  0.819557E+01  0.222261E-06  0.374407E-07
  0.559756E+02  0.915975E+01  0.236584E-06  0.399556E-07
  0.559756E+02  0.101239E+02  0.115843E-06  0.231789E-07
  0.559756E+02  0.110881E+02  0.509906E-09  0.289810E-07
  0.559756E+02  0.120523E+02 -0.835874E-09  0.278695E-07
  0.559756E+02  0.130165E+02  0.156489E-08  0.193329E-07
  0.559756E+02  0.139807E+02  0.419929E-09  0.104111E-07
  0.559756E+02  0.149449E+02  0.892028E-06  0.363164E-07
  0.559756E+02  0.159090E+02  0.931045E-06  0.896546E-07
  0.559756E+02  0.168732E+02  0.138422E-05  0.188899E-06
  0.559756E+02  0.178374E+02  0.153504E-05  0.230512E-06
  0.559756E+02  0.188016E+02  0.218415E-05  0.941530E-07
  0.559756E+02  0.197658E+02  0.874795E-06 -0.390991E-07
  0.584634E+02  0.481811E+00  0.313933E-06 -0.242616E-07
  0.584634E+02  0.144543E+01  0.267813E-06 -0.587512E-07
  0.584634E+02  0.240905E+01  0.265112E-06 -0.571280E-07
  0.584634E+02  0.337268E+01  0.862092E-07 -0.142937E-07
  0.584634E+02  0.433630E+01  0.120794E-06 -0.619289E-08
  0.584634E+02  0.529992E+01  0.135902E-06 -0.352013E-08
  0.584634E+02  0.626354E+01  0.283722E-06 -0.412770E-08
  0.584634E+02  0.722716E+01  0.179167E-06  0.143159E-07
  0.584634E+02  0.819078E+01  0.171889E-06  0.363274E-07
  0.584634E+02  0.915441E+01  0.227619E-06  0.499796E-07
  0.584634E+02  0.101180E+02  0.214916E-06  0.379425E-07
  0.584634E+02  0.110816E+02  0.123698E-08  0.693928E-08
  0.584634E+02  0.120453E+02  0.149699E-08  0.772157E-08
  0.584634E+02  0.130089E+02  0.191098E-08  0.668861E-08
  0.584634E+02  0.139725E+02  0.186097E-08  0.882483E-08
  0.584634E+02  0.149361E+02  0.746330E-06 -0.125005E-07
  0.584634E+02  0.158998E+02  0.100503E-05 -0.485569E-07
  0.584634E+02  0.168634E+02  0.831713E-06 -0.611859E-08
  0.584634E+02  0.178270E+02  0.171545E-05  0.714047E-08
  0.584634E+02  0.187906E+02  0.256990E-05  0.141091E-06
  0.584634E+02  0.197542E+02  0.103341E-05  0.856445E-07
  0.609512E+02  0.481465E+00  0.545053E-06 -0.239374E-07
  0.609512E+02  0.144439E+01  0.301778E-06 -0.299666E-07
  0.609512E+02  0.240732E+01  0.978500E-07 -0.309368E-08
  0.609512E+02  0.337025E+01  0.741463E-07 -0.327233E-08
  0.609512E+02  0.433318E+01  0.125858E-06 -0.147675E-07
  0.609512E+02  0.529611E+01  0.153118E-06 -0.225955E-07
  0.609512E+02  0.625904E+01  0.246839E-06  0.167060E-08
  0.609512E+02  0.722197E+01  0.164300E-06  0.107818E-07
  0.609512E+02  0.818490E+01  0.146187E-06 -0.732574E-09
  0.609512E+02  0.914783E+01  0.205452E-06 -0.110909E-08
  0.609512E+02  0.101108E+02  0.276632E-06  0.317811E-09
  0.609512E+02  0.110737E+02  0.671234E-09  0.272087E-08
  0.609512E+02  0.120366E+02  0.135019E-08  0.326529E-08
  0.609512E+02  0.129995E+02  0.659115E-09  0.339820E-08
  0.609512E+02  0.139625E+02  0.313214E-09  0.306156E-08
  0.609512E+02  0.149254E+02  0.165193E-05  0.403054E-08
  0.609512E+02  0.158883E+02  0.717451E-06  0.867138E-07
  0.609512E+02  0.168513E+02  0.155944E-05  0.986754E-07
  0.609512E+02  0.178142E+02  0.194255E-05 -0.326891E-07
  0.609512E+02  0.187771E+02  0.128324E-05  0.242589E-07