title="2d vectors xy, t=    0.150E+03"
variables="x","y","vx","vy"
zone i=    41, j=    41, T="   0.150E+03"
  0.124390E+01  0.124390E+01  0.240541E-06 -0.456682E-08
  0.124390E+01  0.373171E+01  0.342619E-06 -0.141628E-07
  0.124390E+01  0.621951E+01  0.279659E-06 -0.272961E-07
  0.124390E+01  0.870732E+01  0.326142E-06 -0.369910E-07
  0.124390E+01  0.111951E+02  0.599207E-06 -0.107256E-07
  0.124390E+01  0.136829E+02  0.983602E-06  0.143298E-07
  0.124390E+01  0.161707E+02  0.472599E-06  0.229870E-07
  0.124390E+01  0.186585E+02  0.421179E-06  0.384443E-07
  0.124390E+01  0.211463E+02  0.173156E-06  0.203599E-07
  0.124390E+01  0.236341E+02  0.123169E-06  0.626445E-09
  0.124390E+01  0.261220E+02  0.169939E-06 -0.329850E-07
  0.124390E+01  0.286098E+02  0.538610E-06 -0.394331E-07
  0.124390E+01  0.310976E+02  0.238550E-06  0.237169E-07
  0.124390E+01  0.335854E+02  0.314666E-06 -0.960954E-09
  0.124390E+01  0.360732E+02  0.404437E-06 -0.381571E-07
  0.124390E+01  0.385610E+02  0.939782E-06  0.121425E-06
  0.124390E+01  0.410488E+02  0.978237E-06  0.157778E-06
  0.124390E+01  0.435366E+02  0.675818E-06  0.520480E-07
  0.124390E+01  0.460244E+02  0.416417E-06  0.174347E-07
  0.124390E+01  0.485122E+02  0.356465E-06 -0.113076E-08
  0.124390E+01  0.510000E+02  0.227837E-06 -0.268822E-08
  0.124390E+01  0.534878E+02  0.172631E-06  0.402925E-07
  0.124390E+01  0.559756E+02  0.155231E-06  0.185526E-07
  0.124390E+01  0.584634E+02  0.532514E-06  0.267294E-07
  0.124390E+01  0.609512E+02  0.362833E-06 -0.212598E-07
  0.124390E+01  0.634390E+02  0.181075E-05 -0.410648E-08
  0.124390E+01  0.659268E+02  0.119481E-05  0.441069E-07
  0.124390E+01  0.684146E+02  0.858221E-06  0.154523E-07
  0.124390E+01  0.709024E+02  0.396433E-06  0.100205E-07
  0.124390E+01  0.733902E+02  0.268836E-06 -0.163872E-07
  0.124390E+01  0.758780E+02  0.368465E-06 -0.550150E-07
  0.124390E+01  0.783659E+02  0.401174E-06 -0.295379E-07
  0.124390E+01  0.808537E+02  0.384521E-06 -0.570142E-08
  0.124390E+01  0.833415E+02  0.470498E-06  0.343783E-08
  0.124390E+01  0.858293E+02  0.460673E-06  0.136221E-07
  0.124390E+01  0.883171E+02  0.454942E-06  0.165262E-08
  0.124390E+01  0.908049E+02  0.509856E-06 -0.274647E-07
  0.124390E+01  0.932927E+02  0.632658E-06  0.696732E-08
  0.124390E+01  0.957805E+02  0.376635E-06  0.211862E-07
  0.124390E+01  0.982683E+02  0.592457E-06 -0.137995E-07
  0.124390E+01  0.100756E+03  0.913961E-06  0.446654E-06
  0.373171E+01  0.124390E+01  0.384539E-06 -0.474716E-07
  0.373171E+01  0.373171E+01  0.480095E-06 -0.941883E-07
  0.373171E+01  0.621951E+01  0.329449E-06 -0.741379E-07
  0.373171E+01  0.870732E+01  0.299440E-06 -0.866628E-07
  0.373171E+01  0.111951E+02  0.762786E-06 -0.541508E-07
  0.373171E+01  0.136829E+02  0.906876E-06  0.443019E-07
  0.373171E+01  0.161707E+02  0.190160E-06  0.380921E-07
  0.373171E+01  0.186585E+02  0.196455E-06  0.519947E-07
  0.373171E+01  0.211463E+02  0.325966E-06  0.981345E-07
  0.373171E+01  0.236341E+02  0.272008E-06  0.209075E-07
  0.373171E+01  0.261220E+02  0.222661E-06 -0.402084E-07
  0.373171E+01  0.286098E+02  0.269641E-06 -0.344725E-07
  0.373171E+01  0.310976E+02  0.204530E-06 -0.977145E-08
  0.373171E+01  0.335854E+02  0.343849E-06 -0.453559E-07
  0.373171E+01  0.360732E+02  0.553161E-06 -0.161488E-07
  0.373171E+01  0.385610E+02  0.491115E-06  0.121171E-06
  0.373171E+01  0.410488E+02  0.114787E-05  0.328660E-06
  0.373171E+01  0.435366E+02  0.865922E-06  0.242513E-06
  0.373171E+01  0.460244E+02  0.775654E-06  0.163649E-06
  0.373171E+01  0.485122E+02  0.374498E-06  0.895874E-07
  0.373171E+01  0.510000E+02  0.176878E-06  0.412009E-07
  0.373171E+01  0.534878E+02  0.766844E-07  0.217554E-07
  0.373171E+01  0.559756E+02  0.252756E-06  0.286909E-07
  0.373171E+01  0.584634E+02  0.350368E-06  0.313588E-07
  0.373171E+01  0.609512E+02  0.686285E-06 -0.602537E-07
  0.373171E+01  0.634390E+02  0.782314E-06 -0.309026E-07
  0.373171E+01  0.659268E+02  0.966783E-06  0.528850E-07
  0.373171E+01  0.684146E+02  0.671783E-06  0.473479E-07
  0.373171E+01  0.709024E+02  0.459234E-06 -0.176124E-07
  0.373171E+01  0.733902E+02  0.512593E-06 -0.188193E-06
  0.373171E+01  0.758780E+02  0.335386E-06 -0.177003E-06
  0.373171E+01  0.783659E+02  0.305513E-06 -0.793225E-07
  0.373171E+01  0.808537E+02  0.399094E-06 -0.201492E-07
  0.373171E+01  0.833415E+02  0.326006E-06 -0.375542E-08
  0.373171E+01  0.858293E+02  0.382635E-06  0.169144E-07
  0.373171E+01  0.883171E+02  0.372062E-06  0.210882E-07
  0.373171E+01  0.908049E+02  0.354237E-06 -0.859973E-08
  0.373171E+01  0.932927E+02  0.447865E-06  0.642513E-08
  0.373171E+01  0.957805E+02  0.679411E-06  0.292604E-09
  0.373171E+01  0.982683E+02  0.103427E-05 -0.153889E-06
  0.373171E+01  0.100756E+03  0.830373E-06 -0.112888E-06
  0.621951E+01  0.124390E+01  0.829182E-06 -0.487677E-07
  0.621951E+01  0.373171E+01  0.574189E-06 -0.527012E-07
  0.621951E+01  0.621951E+01  0.586160E-06 -0.829140E-07
  0.621951E+01  0.870732E+01  0.378477E-06 -0.114014E-06
  0.621951E+01  0.111951E+02  0.802717E-06 -0.131455E-06
  0.621951E+01  0.136829E+02  0.115661E-05  0.487284E-07
  0.621951E+01  0.161707E+02  0.407578E-06  0.172594E-06
  0.621951E+01  0.186585E+02  0.234249E-06  0.729729E-07
  0.621951E+01  0.211463E+02  0.301150E-06  0.725681E-07
  0.621951E+01  0.236341E+02  0.401299E-06  0.131900E-06
  0.621951E+01  0.261220E+02  0.416385E-06  0.307593E-07
  0.621951E+01  0.286098E+02  0.191158E-06 -0.223237E-07
  0.621951E+01  0.310976E+02  0.364044E-06 -0.897670E-07
  0.621951E+01  0.335854E+02  0.645207E-06 -0.119581E-06
  0.621951E+01  0.360732E+02  0.466954E-06  0.467670E-07
  0.621951E+01  0.385610E+02  0.714964E-06  0.133553E-06
  0.621951E+01  0.410488E+02  0.114508E-05  0.233195E-06
  0.621951E+01  0.435366E+02  0.113060E-05  0.358197E-06
  0.621951E+01  0.460244E+02  0.927185E-06  0.320875E-06
  0.621951E+01  0.485122E+02  0.509781E-06  0.254708E-06
  0.621951E+01  0.510000E+02  0.380884E-06  0.251681E-06
  0.621951E+01  0.534878E+02  0.204049E-06  0.918881E-07
  0.621951E+01  0.559756E+02  0.237784E-06  0.628388E-08
  0.621951E+01  0.584634E+02  0.308215E-06 -0.228219E-07
  0.621951E+01  0.609512E+02  0.449811E-06 -0.306230E-07
  0.621951E+01  0.634390E+02  0.233894E-06 -0.112522E-07
  0.621951E+01  0.659268E+02  0.245271E-06 -0.115715E-07
  0.621951E+01  0.684146E+02  0.461565E-06 -0.279960E-07
  0.621951E+01  0.709024E+02  0.552680E-06 -0.128511E-06
  0.621951E+01  0.733902E+02  0.376553E-06 -0.168944E-06
  0.621951E+01  0.758780E+02  0.365664E-06 -0.193073E-06
  0.621951E+01  0.783659E+02  0.204518E-06 -0.568331E-07
  0.621951E+01  0.808537E+02  0.360634E-06 -0.416741E-07
  0.621951E+01  0.833415E+02  0.320176E-06 -0.248688E-07
  0.621951E+01  0.858293E+02  0.352701E-06  0.451072E-07
  0.621951E+01  0.883171E+02  0.323919E-06  0.341372E-07
  0.621951E+01  0.908049E+02  0.368214E-06  0.275633E-07
  0.621951E+01  0.932927E+02  0.558689E-06 -0.443415E-07
  0.621951E+01  0.957805E+02  0.100171E-05 -0.128400E-06
  0.621951E+01  0.982683E+02  0.754986E-06  0.550908E-08
  0.621951E+01  0.100756E+03  0.719041E-06  0.823723E-08
  0.870732E+01  0.124390E+01  0.112238E-05  0.349799E-07
  0.870732E+01  0.373171E+01  0.944670E-06 -0.286040E-07
  0.870732E+01  0.621951E+01  0.647463E-06 -0.747579E-07
  0.870732E+01  0.870732E+01  0.399056E-06 -0.685835E-07
  0.870732E+01  0.111951E+02  0.951494E-06 -0.112800E-06
  0.870732E+01  0.136829E+02  0.705555E-06  0.451178E-07
  0.870732E+01  0.161707E+02  0.419955E-06  0.104017E-06
  0.870732E+01  0.186585E+02  0.714058E-06  0.109993E-06
  0.870732E+01  0.211463E+02  0.571242E-06  0.156593E-07
  0.870732E+01  0.236341E+02  0.272045E-06  0.284827E-07
  0.870732E+01  0.261220E+02  0.618943E-06  0.154473E-06
  0.870732E+01  0.286098E+02  0.207367E-06  0.460888E-07
  0.870732E+01  0.310976E+02  0.306774E-06 -0.108705E-07
  0.870732E+01  0.335854E+02  0.400061E-06 -0.480908E-08
  0.870732E+01  0.360732E+02  0.360688E-06  0.179590E-07
  0.870732E+01  0.385610E+02  0.739482E-06  0.847038E-07
  0.870732E+01  0.410488E+02  0.673339E-06  0.104230E-06
  0.870732E+01  0.435366E+02  0.832134E-06  0.169836E-06
  0.870732E+01  0.460244E+02  0.789815E-06  0.357360E-06
  0.870732E+01  0.485122E+02  0.692733E-06  0.450683E-06
  0.870732E+01  0.510000E+02  0.512461E-06  0.381060E-06
  0.870732E+01  0.534878E+02  0.389335E-06  0.231919E-06
  0.870732E+01  0.559756E+02  0.259626E-06  0.406500E-07
  0.870732E+01  0.584634E+02  0.419392E-06 -0.568977E-07
  0.870732E+01  0.609512E+02  0.310395E-06 -0.711610E-07
  0.870732E+01  0.634390E+02  0.170386E-06 -0.177622E-07
  0.870732E+01  0.659268E+02  0.125334E-06 -0.827697E-08
  0.870732E+01  0.684146E+02  0.225836E-06 -0.481601E-07
  0.870732E+01  0.709024E+02  0.354224E-06 -0.808572E-07
  0.870732E+01  0.733902E+02  0.237995E-06 -0.518650E-07
  0.870732E+01  0.758780E+02  0.129003E-06 -0.393368E-07
  0.870732E+01  0.783659E+02  0.240746E-06 -0.826368E-07
  0.870732E+01  0.808537E+02  0.400305E-06 -0.103371E-06
  0.870732E+01  0.833415E+02  0.222786E-06 -0.177731E-07
  0.870732E+01  0.858293E+02  0.191682E-06  0.383491E-07
  0.870732E+01  0.883171E+02  0.501288E-06  0.121503E-06
  0.870732E+01  0.908049E+02  0.609295E-06  0.358847E-07
  0.870732E+01  0.932927E+02  0.922897E-06 -0.671611E-07
  0.870732E+01  0.957805E+02  0.470629E-06 -0.651450E-08
  0.870732E+01  0.982683E+02  0.724718E-06  0.217845E-07
  0.870732E+01  0.100756E+03  0.648408E-06  0.292247E-07
  0.111951E+02  0.124390E+01  0.809627E-06 -0.447572E-07
  0.111951E+02  0.373171E+01  0.919043E-06 -0.779084E-07
  0.111951E+02  0.621951E+01  0.474999E-06 -0.179807E-07
  0.111951E+02  0.870732E+01  0.642892E-06 -0.290966E-07
  0.111951E+02  0.111951E+02  0.122850E-05  0.256680E-07
  0.111951E+02  0.136829E+02  0.647071E-06  0.757263E-07
  0.111951E+02  0.161707E+02  0.107632E-05  0.228747E-07
  0.111951E+02  0.186585E+02  0.879550E-06 -0.471793E-07
  0.111951E+02  0.211463E+02  0.838161E-06 -0.265883E-07
  0.111951E+02  0.236341E+02  0.276066E-06 -0.721884E-08
  0.111951E+02  0.261220E+02  0.279560E-06  0.315676E-07
  0.111951E+02  0.286098E+02  0.232818E-06  0.872587E-07
  0.111951E+02  0.310976E+02  0.223889E-06  0.715036E-07
  0.111951E+02  0.335854E+02  0.388936E-06  0.542390E-07
  0.111951E+02  0.360732E+02  0.286810E-06  0.259961E-07
  0.111951E+02  0.385610E+02  0.426113E-06  0.685551E-07
  0.111951E+02  0.410488E+02  0.551578E-06  0.115963E-06
  0.111951E+02  0.435366E+02  0.561386E-06  0.151576E-06
  0.111951E+02  0.460244E+02  0.318150E-06  0.118913E-06
  0.111951E+02  0.485122E+02  0.513702E-06  0.238116E-06
  0.111951E+02  0.510000E+02  0.412277E-06  0.255213E-06
  0.111951E+02  0.534878E+02  0.351067E-06  0.168095E-06
  0.111951E+02  0.559756E+02  0.381120E-06  0.904593E-07
  0.111951E+02  0.584634E+02  0.529189E-06 -0.393764E-07
  0.111951E+02  0.609512E+02  0.218769E-06 -0.514577E-07
  0.111951E+02  0.634390E+02  0.759645E-07 -0.170486E-07
  0.111951E+02  0.659268E+02  0.143245E-06 -0.330853E-07
  0.111951E+02  0.684146E+02  0.191772E-06 -0.364572E-07
  0.111951E+02  0.709024E+02  0.221759E-06 -0.447690E-07
  0.111951E+02  0.733902E+02  0.176504E-06 -0.432678E-07
  0.111951E+02  0.758780E+02  0.257292E-06 -0.117876E-06
  0.111951E+02  0.783659E+02  0.320009E-06 -0.190493E-06
  0.111951E+02  0.808537E+02  0.292204E-06 -0.114087E-06
  0.111951E+02  0.833415E+02  0.257384E-06 -0.332874E-07
  0.111951E+02  0.858293E+02  0.159688E-06  0.555235E-08
  0.111951E+02  0.883171E+02  0.471464E-06  0.768809E-07
  0.111951E+02  0.908049E+02  0.121719E-05  0.936998E-07
  0.111951E+02  0.932927E+02  0.419108E-06  0.303913E-07
  0.111951E+02  0.957805E+02  0.850602E-06  0.872107E-07
  0.111951E+02  0.982683E+02  0.443093E-06  0.163602E-07
  0.111951E+02  0.100756E+03  0.359574E-06  0.339859E-08
  0.136829E+02  0.124390E+01  0.709473E-06 -0.167385E-07
  0.136829E+02  0.373171E+01  0.777445E-06  0.144916E-08
  0.136829E+02  0.621951E+01  0.736062E-06  0.569448E-07
  0.136829E+02  0.870732E+01  0.618224E-06 -0.130659E-07
  0.136829E+02  0.111951E+02  0.955372E-06 -0.164042E-07
  0.136829E+02  0.136829E+02  0.915005E-06  0.367433E-08
  0.136829E+02  0.161707E+02  0.164084E-05 -0.334068E-06
  0.136829E+02  0.186585E+02  0.152667E-05 -0.449656E-06
  0.136829E+02  0.211463E+02  0.701208E-06 -0.131892E-06
  0.136829E+02  0.236341E+02  0.219189E-06  0.504640E-07
  0.136829E+02  0.261220E+02  0.841903E-07  0.242389E-07
  0.136829E+02  0.286098E+02  0.130876E-06  0.457171E-07
  0.136829E+02  0.310976E+02  0.220009E-06  0.873260E-07
  0.136829E+02  0.335854E+02  0.448616E-06  0.110128E-06
  0.136829E+02  0.360732E+02  0.202551E-06  0.598181E-07
  0.136829E+02  0.385610E+02  0.226963E-06  0.372958E-07
  0.136829E+02  0.410488E+02  0.263610E-06  0.551537E-07
  0.136829E+02  0.435366E+02  0.317752E-06  0.102857E-06
  0.136829E+02  0.460244E+02  0.274020E-06  0.113163E-06
  0.136829E+02  0.485122E+02  0.282260E-06  0.147002E-06
  0.136829E+02  0.510000E+02  0.232377E-06  0.146101E-06
  0.136829E+02  0.534878E+02  0.341037E-06  0.116249E-06
  0.136829E+02  0.559756E+02  0.217730E-06  0.419274E-07
  0.136829E+02  0.584634E+02  0.637642E-06  0.282280E-07
  0.136829E+02  0.609512E+02  0.366124E-06 -0.280149E-07
  0.136829E+02  0.634390E+02  0.209706E-06 -0.629355E-07
  0.136829E+02  0.659268E+02  0.960043E-07 -0.451783E-07
  0.136829E+02  0.684146E+02  0.187451E-06 -0.326498E-07
  0.136829E+02  0.709024E+02  0.334733E-06 -0.795503E-07
  0.136829E+02  0.733902E+02  0.217665E-06 -0.978852E-07
  0.136829E+02  0.758780E+02  0.487112E-06 -0.225329E-06
  0.136829E+02  0.783659E+02  0.412752E-06 -0.223906E-06
  0.136829E+02  0.808537E+02  0.251352E-06 -0.142613E-06
  0.136829E+02  0.833415E+02  0.351873E-06 -0.645927E-07
  0.136829E+02  0.858293E+02  0.263635E-06 -0.391984E-08
  0.136829E+02  0.883171E+02  0.479962E-06 -0.103573E-07
  0.136829E+02  0.908049E+02  0.910172E-06  0.480632E-07
  0.136829E+02  0.932927E+02  0.649797E-06  0.845815E-07
  0.136829E+02  0.957805E+02  0.394299E-06  0.445317E-07
  0.136829E+02  0.982683E+02  0.624272E-06  0.826416E-07
  0.136829E+02  0.100756E+03  0.470935E-06  0.144074E-07
  0.161707E+02  0.124390E+01  0.763033E-06 -0.299950E-07
  0.161707E+02  0.373171E+01  0.815466E-06 -0.974404E-07
  0.161707E+02  0.621951E+01  0.555797E-06 -0.400320E-07
  0.161707E+02  0.870732E+01  0.120733E-05 -0.663004E-07
  0.161707E+02  0.111951E+02  0.641521E-06 -0.103402E-06
  0.161707E+02  0.136829E+02  0.712853E-06 -0.918068E-07
  0.161707E+02  0.161707E+02  0.189368E-05 -0.325575E-06
  0.161707E+02  0.186585E+02  0.115025E-05 -0.156570E-06
  0.161707E+02  0.211463E+02  0.418925E-06  0.178975E-07
  0.161707E+02  0.236341E+02  0.163554E-06  0.197834E-07
  0.161707E+02  0.261220E+02  0.797120E-07  0.106108E-07
  0.161707E+02  0.286098E+02  0.116358E-06  0.209447E-07
  0.161707E+02  0.310976E+02  0.135079E-06  0.336206E-07
  0.161707E+02  0.335854E+02  0.258224E-06  0.737992E-07
  0.161707E+02  0.360732E+02  0.151704E-06  0.685339E-07
  0.161707E+02  0.385610E+02  0.114402E-06  0.432521E-07
  0.161707E+02  0.410488E+02  0.152450E-06  0.585377E-07
  0.161707E+02  0.435366E+02  0.197474E-06  0.599887E-07
  0.161707E+02  0.460244E+02  0.194141E-06  0.596006E-07
  0.161707E+02  0.485122E+02  0.172873E-06  0.761944E-07
  0.161707E+02  0.510000E+02  0.135863E-06  0.420297E-07
  0.161707E+02  0.534878E+02  0.151414E-06  0.262490E-07
  0.161707E+02  0.559756E+02  0.177149E-06  0.242586E-07
  0.161707E+02  0.584634E+02  0.464369E-06  0.162792E-07
  0.161707E+02  0.609512E+02  0.466501E-06 -0.381416E-07
  0.161707E+02  0.634390E+02  0.416336E-06 -0.770625E-07
  0.161707E+02  0.659268E+02  0.604772E-07 -0.300405E-07
  0.161707E+02  0.684146E+02  0.253543E-06 -0.134527E-06
  0.161707E+02  0.709024E+02  0.312406E-06 -0.147881E-06
  0.161707E+02  0.733902E+02  0.530316E-06 -0.273718E-06
  0.161707E+02  0.758780E+02  0.677779E-06 -0.388715E-06
  0.161707E+02  0.783659E+02  0.629462E-06 -0.344248E-06
  0.161707E+02  0.808537E+02  0.266826E-06 -0.123922E-06
  0.161707E+02  0.833415E+02  0.260200E-06 -0.551831E-07
  0.161707E+02  0.858293E+02  0.478569E-06 -0.498160E-07
  0.161707E+02  0.883171E+02  0.496026E-06 -0.356316E-07
  0.161707E+02  0.908049E+02  0.645532E-06  0.210437E-08
  0.161707E+02  0.932927E+02  0.358090E-06  0.796776E-07
  0.161707E+02  0.957805E+02  0.384591E-06  0.535384E-07
  0.161707E+02  0.982683E+02  0.682718E-06  0.217055E-07
  0.161707E+02  0.100756E+03  0.672094E-06  0.301165E-07
  0.186585E+02  0.124390E+01  0.776502E-06 -0.750811E-07
  0.186585E+02  0.373171E+01  0.654051E-06 -0.132280E-06
  0.186585E+02  0.621951E+01  0.489266E-06 -0.138968E-06
  0.186585E+02  0.870732E+01  0.753210E-06 -0.146427E-06
  0.186585E+02  0.111951E+02  0.527749E-06 -0.706941E-07
  0.186585E+02  0.136829E+02  0.877889E-06 -0.113700E-06
  0.186585E+02  0.161707E+02  0.168206E-05 -0.720019E-07
  0.186585E+02  0.186585E+02  0.124986E-05  0.107917E-06
  0.186585E+02  0.211463E+02  0.682304E-06  0.136054E-06
  0.186585E+02  0.236341E+02  0.347783E-06  0.439287E-07
  0.186585E+02  0.261220E+02  0.976462E-07  0.352351E-08
  0.186585E+02  0.286098E+02  0.855503E-07  0.371317E-08
  0.186585E+02  0.310976E+02  0.501530E-07  0.639683E-08
  0.186585E+02  0.335854E+02  0.122838E-06  0.167956E-07
  0.186585E+02  0.360732E+02  0.118468E-06  0.304194E-07
  0.186585E+02  0.385610E+02  0.959680E-07  0.359929E-07
  0.186585E+02  0.410488E+02  0.138515E-06  0.518952E-07
  0.186585E+02  0.435366E+02  0.258467E-06  0.664762E-07
  0.186585E+02  0.460244E+02  0.162400E-06  0.300853E-07
  0.186585E+02  0.485122E+02  0.900959E-07  0.155973E-07
  0.186585E+02  0.510000E+02  0.104518E-06  0.137848E-07
  0.186585E+02  0.534878E+02  0.146199E-06  0.115535E-07
  0.186585E+02  0.559756E+02  0.184058E-06  0.356769E-08
  0.186585E+02  0.584634E+02  0.436349E-06  0.152386E-08
  0.186585E+02  0.609512E+02  0.559942E-06 -0.117479E-07
  0.186585E+02  0.634390E+02  0.214582E-06 -0.846043E-09
  0.186585E+02  0.659268E+02  0.421085E-06 -0.703819E-07
  0.186585E+02  0.684146E+02  0.314398E-06 -0.116729E-06
  0.186585E+02  0.709024E+02  0.259507E-06 -0.108076E-06
  0.186585E+02  0.733902E+02  0.676958E-06 -0.202413E-06
  0.186585E+02  0.758780E+02  0.816490E-06 -0.162427E-06
  0.186585E+02  0.783659E+02  0.615571E-06 -0.912935E-07
  0.186585E+02  0.808537E+02  0.336393E-06 -0.860406E-07
  0.186585E+02  0.833415E+02  0.413216E-06 -0.155729E-06
  0.186585E+02  0.858293E+02  0.376608E-06 -0.921491E-07
  0.186585E+02  0.883171E+02  0.521103E-06 -0.358673E-07
  0.186585E+02  0.908049E+02  0.411733E-06 -0.528082E-08
  0.186585E+02  0.932927E+02  0.209652E-06  0.499989E-07
  0.186585E+02  0.957805E+02  0.341117E-06  0.521445E-07
  0.186585E+02  0.982683E+02  0.531368E-06  0.118351E-06
  0.186585E+02  0.100756E+03  0.693645E-06  0.617465E-07
  0.211463E+02  0.124390E+01  0.138033E-05 -0.378794E-07
  0.211463E+02  0.373171E+01  0.490494E-06 -0.632201E-07
  0.211463E+02  0.621951E+01  0.723338E-06 -0.215104E-06
  0.211463E+02  0.870732E+01  0.338604E-06 -0.121549E-06
  0.211463E+02  0.111951E+02  0.547897E-06 -0.202959E-06
  0.211463E+02  0.136829E+02  0.126989E-05 -0.273015E-06
  0.211463E+02  0.161707E+02  0.258330E-05  0.425633E-07
  0.211463E+02  0.186585E+02  0.129530E-05  0.376001E-06
  0.211463E+02  0.211463E+02  0.105193E-05  0.289012E-06
  0.211463E+02  0.236341E+02  0.401055E-06  0.101345E-06
  0.211463E+02  0.261220E+02  0.153380E-06  0.279942E-07
  0.211463E+02  0.286098E+02  0.517709E-07  0.480548E-08
  0.211463E+02  0.310976E+02  0.433194E-07  0.631426E-09
  0.211463E+02  0.335854E+02  0.487259E-07  0.242731E-08
  0.211463E+02  0.360732E+02  0.796281E-07  0.132680E-07
  0.211463E+02  0.385610E+02  0.583552E-07  0.144537E-07
  0.211463E+02  0.410488E+02  0.172786E-06  0.257393E-07
  0.211463E+02  0.435366E+02  0.280364E-06  0.242292E-07
  0.211463E+02  0.460244E+02  0.262074E-06  0.233344E-08
  0.211463E+02  0.485122E+02  0.797282E-07 -0.152675E-07
  0.211463E+02  0.510000E+02  0.961289E-07  0.258244E-09
  0.211463E+02  0.534878E+02  0.107090E-06  0.566024E-08
  0.211463E+02  0.559756E+02  0.174960E-06  0.110928E-07
  0.211463E+02  0.584634E+02  0.340402E-06  0.117801E-07
  0.211463E+02  0.609512E+02  0.616304E-06  0.368984E-07
  0.211463E+02  0.634390E+02  0.572570E-06  0.394325E-07
  0.211463E+02  0.659268E+02  0.521430E-06 -0.199768E-08
  0.211463E+02  0.684146E+02  0.355207E-06 -0.453802E-07
  0.211463E+02  0.709024E+02  0.250030E-06 -0.586473E-07
  0.211463E+02  0.733902E+02  0.329259E-06 -0.221431E-07
  0.211463E+02  0.758780E+02  0.448547E-06  0.266459E-08
  0.211463E+02  0.783659E+02  0.530466E-06 -0.453356E-07
  0.211463E+02  0.808537E+02  0.519866E-06 -0.136041E-06
  0.211463E+02  0.833415E+02  0.386392E-06 -0.944135E-07
  0.211463E+02  0.858293E+02  0.286142E-06 -0.847133E-07
  0.211463E+02  0.883171E+02  0.466033E-06 -0.147491E-07
  0.211463E+02  0.908049E+02  0.266716E-06  0.374698E-07
  0.211463E+02  0.932927E+02  0.186952E-06  0.312363E-07
  0.211463E+02  0.957805E+02  0.353924E-06  0.301178E-07
  0.211463E+02  0.982683E+02  0.312059E-06  0.357304E-07
  0.211463E+02  0.100756E+03  0.100845E-05  0.403494E-07
  0.236341E+02  0.124390E+01  0.160312E-05  0.201590E-07
  0.236341E+02  0.373171E+01  0.107699E-05 -0.106072E-06
  0.236341E+02  0.621951E+01  0.674365E-06 -0.218634E-06
  0.236341E+02  0.870732E+01  0.696487E-06 -0.448492E-06
  0.236341E+02  0.111951E+02  0.694499E-06 -0.499045E-06
  0.236341E+02  0.136829E+02  0.138234E-05 -0.559093E-06
  0.236341E+02  0.161707E+02  0.187384E-05  0.873587E-07
  0.236341E+02  0.186585E+02  0.131685E-05  0.510399E-06
  0.236341E+02  0.211463E+02  0.118787E-05  0.477556E-06
  0.236341E+02  0.236341E+02  0.320276E-06  0.159341E-06
  0.236341E+02  0.261220E+02  0.119155E-06  0.475820E-07
  0.236341E+02  0.286098E+02  0.298527E-07  0.101803E-07
  0.236341E+02  0.310976E+02  0.151623E-07  0.897196E-09
  0.236341E+02  0.335854E+02  0.207711E-07  0.616275E-09
  0.236341E+02  0.360732E+02  0.322217E-07  0.163810E-08
  0.236341E+02  0.385610E+02  0.429120E-07 -0.196126E-08
  0.236341E+02  0.410488E+02  0.193288E-06 -0.293739E-07
  0.236341E+02  0.435366E+02  0.296190E-06 -0.525351E-07
  0.236341E+02  0.460244E+02  0.284276E-06 -0.443914E-07
  0.236341E+02  0.485122E+02  0.671915E-07 -0.431874E-08
  0.236341E+02  0.510000E+02  0.961555E-07 -0.542010E-08
  0.236341E+02  0.534878E+02  0.167713E-06  0.177184E-07
  0.236341E+02  0.559756E+02  0.232976E-06  0.249699E-07
  0.236341E+02  0.584634E+02  0.554950E-06  0.308071E-07
  0.236341E+02  0.609512E+02  0.683450E-06  0.587910E-07
  0.236341E+02  0.634390E+02  0.765764E-06  0.531797E-07
  0.236341E+02  0.659268E+02  0.693087E-06  0.531601E-08
  0.236341E+02  0.684146E+02  0.328534E-06  0.149254E-08
  0.236341E+02  0.709024E+02  0.309396E-06  0.156483E-07
  0.236341E+02  0.733902E+02  0.240006E-06  0.302050E-07
  0.236341E+02  0.758780E+02  0.271437E-06  0.256891E-07
  0.236341E+02  0.783659E+02  0.352617E-06  0.159156E-08
  0.236341E+02  0.808537E+02  0.220653E-06 -0.102762E-07
  0.236341E+02  0.833415E+02  0.318388E-06 -0.273177E-07
  0.236341E+02  0.858293E+02  0.231434E-06 -0.495645E-07
  0.236341E+02  0.883171E+02  0.244866E-06 -0.200264E-07
  0.236341E+02  0.908049E+02  0.443885E-06  0.716922E-07
  0.236341E+02  0.932927E+02  0.247643E-06  0.788951E-07
  0.236341E+02  0.957805E+02  0.372743E-06  0.501017E-07
  0.236341E+02  0.982683E+02  0.314976E-06  0.143735E-07
  0.236341E+02  0.100756E+03  0.707881E-06 -0.234150E-08
  0.261220E+02  0.124390E+01  0.149534E-05  0.742314E-07
  0.261220E+02  0.373171E+01  0.118466E-05  0.376440E-09
  0.261220E+02  0.621951E+01  0.146353E-05 -0.321706E-06
  0.261220E+02  0.870732E+01  0.626333E-06 -0.352006E-06
  0.261220E+02  0.111951E+02  0.741383E-06 -0.476295E-06
  0.261220E+02  0.136829E+02  0.746373E-06 -0.296382E-06
  0.261220E+02  0.161707E+02  0.739816E-06 -0.872698E-08
  0.261220E+02  0.186585E+02  0.572872E-06  0.861536E-07
  0.261220E+02  0.211463E+02  0.589553E-06  0.127615E-06
  0.261220E+02  0.236341E+02  0.668132E-06  0.272369E-06
  0.261220E+02  0.261220E+02  0.184113E-06  0.804586E-07
  0.261220E+02  0.286098E+02  0.354854E-07  0.129163E-07
  0.261220E+02  0.310976E+02  0.443560E-07  0.140219E-07
  0.261220E+02  0.335854E+02  0.293463E-07  0.261476E-08
  0.261220E+02  0.360732E+02  0.437457E-07 -0.806486E-08
  0.261220E+02  0.385610E+02  0.876611E-07 -0.393547E-07
  0.261220E+02  0.410488E+02  0.149657E-06 -0.628035E-07
  0.261220E+02  0.435366E+02  0.456284E-06 -0.101787E-06
  0.261220E+02  0.460244E+02  0.191746E-06 -0.112547E-07
  0.261220E+02  0.485122E+02  0.146260E-06  0.691495E-08
  0.261220E+02  0.510000E+02  0.753668E-07 -0.435928E-08
  0.261220E+02  0.534878E+02  0.155953E-06  0.186868E-07
  0.261220E+02  0.559756E+02  0.306761E-06  0.436624E-07
  0.261220E+02  0.584634E+02  0.816930E-06  0.156612E-06
  0.261220E+02  0.609512E+02  0.130341E-05  0.215373E-06
  0.261220E+02  0.634390E+02  0.148069E-05  0.132484E-06
  0.261220E+02  0.659268E+02  0.831684E-06  0.742118E-07
  0.261220E+02  0.684146E+02  0.368498E-06  0.364624E-07
  0.261220E+02  0.709024E+02  0.301606E-06  0.308102E-07
  0.261220E+02  0.733902E+02  0.233566E-06  0.298685E-07
  0.261220E+02  0.758780E+02  0.236027E-06  0.345365E-07
  0.261220E+02  0.783659E+02  0.236300E-06  0.450959E-07
  0.261220E+02  0.808537E+02  0.258696E-06  0.203630E-07
  0.261220E+02  0.833415E+02  0.248658E-06 -0.168011E-07
  0.261220E+02  0.858293E+02  0.211189E-06 -0.280473E-07
  0.261220E+02  0.883171E+02  0.167120E-06 -0.308471E-07
  0.261220E+02  0.908049E+02  0.338898E-06  0.169816E-07
  0.261220E+02  0.932927E+02  0.209055E-06  0.697550E-07
  0.261220E+02  0.957805E+02  0.390109E-06  0.802661E-07
  0.261220E+02  0.982683E+02  0.291265E-06  0.423464E-07
  0.261220E+02  0.100756E+03  0.434260E-06  0.126985E-07
  0.286098E+02  0.124390E+01  0.382431E-06  0.396806E-07
  0.286098E+02  0.373171E+01  0.583193E-06 -0.507250E-08
  0.286098E+02  0.621951E+01  0.113801E-05 -0.291307E-06
  0.286098E+02  0.870732E+01  0.801611E-06 -0.418080E-06
  0.286098E+02  0.111951E+02  0.371133E-06 -0.180922E-06
  0.286098E+02  0.136829E+02  0.331897E-06 -0.814750E-07
  0.286098E+02  0.161707E+02  0.253516E-06 -0.290140E-07
  0.286098E+02  0.186585E+02  0.229268E-06  0.153892E-09
  0.286098E+02  0.211463E+02  0.291897E-06  0.324587E-07
  0.286098E+02  0.236341E+02  0.426127E-06  0.591675E-07
  0.286098E+02  0.261220E+02  0.322897E-06  0.801118E-07
  0.286098E+02  0.286098E+02  0.139696E-06  0.279469E-07
  0.286098E+02  0.310976E+02  0.826057E-07  0.142284E-07
  0.286098E+02  0.335854E+02  0.620746E-07  0.522444E-08
  0.286098E+02  0.360732E+02  0.136483E-06 -0.290175E-07
  0.286098E+02  0.385610E+02  0.934495E-07 -0.386693E-07
  0.286098E+02  0.410488E+02  0.183812E-06 -0.645137E-07
  0.286098E+02  0.435366E+02  0.277651E-06 -0.300408E-07
  0.286098E+02  0.460244E+02  0.181605E-06  0.351398E-08
  0.286098E+02  0.485122E+02  0.149487E-06  0.727621E-08
  0.286098E+02  0.510000E+02  0.457174E-07  0.203729E-08
  0.286098E+02  0.534878E+02  0.117997E-06  0.409714E-08
  0.286098E+02  0.559756E+02  0.424513E-06  0.113587E-06
  0.286098E+02  0.584634E+02  0.676627E-06  0.258493E-06
  0.286098E+02  0.609512E+02  0.148561E-05  0.400512E-06
  0.286098E+02  0.634390E+02  0.206164E-05  0.368434E-06
  0.286098E+02  0.659268E+02  0.866691E-06  0.221941E-06
  0.286098E+02  0.684146E+02  0.583564E-06  0.198216E-06
  0.286098E+02  0.709024E+02  0.308037E-06  0.833047E-07
  0.286098E+02  0.733902E+02  0.221654E-06  0.203998E-07
  0.286098E+02  0.758780E+02  0.137253E-06  0.105209E-07
  0.286098E+02  0.783659E+02  0.199523E-06  0.272548E-07
  0.286098E+02  0.808537E+02  0.202494E-06  0.206137E-07
  0.286098E+02  0.833415E+02  0.935997E-07 -0.125038E-08
  0.286098E+02  0.858293E+02  0.128819E-06 -0.173378E-07
  0.286098E+02  0.883171E+02  0.161274E-06 -0.430500E-07
  0.286098E+02  0.908049E+02  0.158032E-06 -0.810208E-08
  0.286098E+02  0.932927E+02  0.159782E-06  0.145241E-07
  0.286098E+02  0.957805E+02  0.243123E-06  0.222591E-07
  0.286098E+02  0.982683E+02  0.162338E-06  0.347283E-07
  0.286098E+02  0.100756E+03  0.203236E-06  0.117977E-07
  0.310976E+02  0.124390E+01  0.362883E-06 -0.116260E-07
  0.310976E+02  0.373171E+01  0.685176E-06  0.258347E-07
  0.310976E+02  0.621951E+01  0.507165E-06  0.228111E-07
  0.310976E+02  0.870732E+01  0.383302E-06 -0.157025E-08
  0.310976E+02  0.111951E+02  0.254761E-06 -0.172092E-07
  0.310976E+02  0.136829E+02  0.220172E-06 -0.305352E-07
  0.310976E+02  0.161707E+02  0.119338E-06 -0.137535E-07
  0.310976E+02  0.186585E+02  0.124305E-06 -0.998200E-08
  0.310976E+02  0.211463E+02  0.157910E-06 -0.148443E-07
  0.310976E+02  0.236341E+02  0.374696E-06 -0.129052E-07
  0.310976E+02  0.261220E+02  0.294655E-06  0.581592E-09
  0.310976E+02  0.286098E+02  0.236533E-06 -0.784438E-08
  0.310976E+02  0.310976E+02  0.144754E-06 -0.106031E-07
  0.310976E+02  0.335854E+02  0.192410E-06 -0.673233E-08
  0.310976E+02  0.360732E+02  0.222936E-06 -0.192570E-07
  0.310976E+02  0.385610E+02  0.135229E-06 -0.272066E-07
  0.310976E+02  0.410488E+02  0.132547E-06 -0.286086E-07
  0.310976E+02  0.435366E+02  0.208971E-06 -0.102649E-07
  0.310976E+02  0.460244E+02  0.145875E-06  0.522890E-08
  0.310976E+02  0.485122E+02  0.748354E-07  0.496047E-08
  0.310976E+02  0.510000E+02  0.878099E-07  0.100706E-07
  0.310976E+02  0.534878E+02  0.928713E-07  0.117305E-07
  0.310976E+02  0.559756E+02  0.188871E-06  0.317151E-07
  0.310976E+02  0.584634E+02  0.438539E-06  0.880227E-07
  0.310976E+02  0.609512E+02  0.101395E-05  0.239983E-06
  0.310976E+02  0.634390E+02  0.146534E-05  0.369353E-06
  0.310976E+02  0.659268E+02  0.814083E-06  0.310847E-06
  0.310976E+02  0.684146E+02  0.509812E-06  0.283476E-06
  0.310976E+02  0.709024E+02  0.489331E-06  0.291967E-06
  0.310976E+02  0.733902E+02  0.386721E-06  0.127902E-06
  0.310976E+02  0.758780E+02  0.197148E-06  0.531769E-07
  0.310976E+02  0.783659E+02  0.293496E-06  0.281690E-07