variables="x","h","c"
zone i=     42,T= "1dxhc;t= 0.1500E+03y,z:   1   1"
    0.00000E+00    0.50000E+00    0.00000E+00
    0.24878E+01    0.49334E+00    0.17331E-16
    0.49756E+01    0.48872E+00    0.45857E-16
    0.74634E+01    0.48223E+00    0.10858E-15
    0.99512E+01    0.47460E+00    0.25840E-15
    0.12439E+02    0.47002E+00    0.60584E-15
    0.14927E+02    0.46595E+00    0.66334E-15
    0.17415E+02    0.46171E+00    0.70465E-15
    0.19902E+02    0.45593E+00    0.70244E-15
    0.22390E+02    0.45228E+00    0.25200E-15
    0.24878E+02    0.44899E+00    0.28778E-15
    0.27366E+02    0.44415E+00    0.49332E-15
    0.29854E+02    0.43858E+00    0.27405E-14
    0.32341E+02    0.43287E+00    0.22678E-13
    0.34829E+02    0.42839E+00    0.98749E-13
    0.37317E+02    0.42391E+00    0.31692E-12
    0.39805E+02    0.41881E+00    0.59612E-12
    0.42293E+02    0.41064E+00    0.11766E-11
    0.44780E+02    0.40549E+00    0.88333E-11
    0.47268E+02    0.39980E+00    0.71412E-10
    0.49756E+02    0.39383E+00    0.42639E-09
    0.52244E+02    0.39005E+00    0.89859E-09
    0.54732E+02    0.38461E+00    0.22816E-08
    0.57220E+02    0.38146E+00   -0.36355E-08
    0.59707E+02    0.37569E+00   -0.34677E-07
    0.62195E+02    0.37158E+00   -0.12230E-06
    0.64683E+02    0.36602E+00   -0.26530E-06
    0.67171E+02    0.35785E+00    0.81588E-07
    0.69659E+02    0.35294E+00    0.59441E-05
    0.72146E+02    0.34972E+00    0.36280E-04
    0.74634E+02    0.34427E+00    0.28972E-03
    0.77122E+02    0.33652E+00    0.20181E-02
    0.79610E+02    0.33329E+00    0.93420E-02
    0.82098E+02    0.33310E+00    0.91162E-02
    0.84585E+02    0.34166E+00    0.16976E+00
    0.87073E+02    0.35124E+00    0.39258E+00
    0.89561E+02    0.35938E+00    0.59654E+00
    0.92049E+02    0.36791E+00    0.77890E+00
    0.94537E+02    0.37779E+00    0.83840E+00
    0.97024E+02    0.38854E+00    0.86975E+00
    0.99512E+02    0.40374E+00    0.95981E+00
    0.10200E+03    0.40008E+00    0.10000E+01
zone i=     42,T= "1dxhc;t= 0.1500E+03y,z:   1  12"
    0.00000E+00    0.50000E+00    0.00000E+00
    0.24878E+01    0.49221E+00    0.11022E-18
    0.49756E+01    0.48566E+00    0.46240E-18
    0.74634E+01    0.47862E+00    0.21314E-17
    0.99512E+01    0.47520E+00    0.46965E-17
    0.12439E+02    0.46961E+00    0.14377E-16
    0.14927E+02    0.46370E+00    0.34064E-16
    0.17415E+02    0.45803E+00    0.38088E-16
    0.19902E+02    0.45068E+00    0.62599E-16
    0.22390E+02    0.44698E+00    0.59885E-15
    0.24878E+02    0.44425E+00    0.15441E-14
    0.27366E+02    0.44146E+00    0.75736E-14
    0.29854E+02    0.43790E+00    0.15702E-13
    0.32341E+02    0.43475E+00    0.46956E-13
    0.34829E+02    0.43128E+00    0.75354E-13
    0.37317E+02    0.42626E+00    0.12823E-12
    0.39805E+02    0.41869E+00    0.23685E-12
    0.42293E+02    0.41091E+00    0.40141E-12
    0.44780E+02    0.40667E+00    0.12079E-11
    0.47268E+02    0.40166E+00    0.15881E-11
    0.49756E+02    0.39656E+00    0.70479E-11
    0.52244E+02    0.39359E+00    0.36429E-10
    0.54732E+02    0.38875E+00    0.27694E-09
    0.57220E+02    0.38206E+00    0.13955E-08
    0.59707E+02    0.37378E+00    0.43385E-08
    0.62195E+02    0.36569E+00    0.76618E-08
    0.64683E+02    0.35632E+00    0.63793E-08
    0.67171E+02    0.35099E+00    0.17182E-08
    0.69659E+02    0.34275E+00    0.12340E-06
    0.72146E+02    0.33375E+00    0.18567E-05
    0.74634E+02    0.32859E+00    0.72609E-05
    0.77122E+02    0.32467E+00    0.23468E-04
    0.79610E+02    0.32185E+00    0.29835E-04
    0.82098E+02    0.31650E+00    0.33902E-04
    0.84585E+02    0.31038E+00    0.45273E-05
    0.87073E+02    0.29960E+00    0.97573E-03
    0.89561E+02    0.28306E+00    0.13050E-02
    0.92049E+02    0.26128E+00    0.51387E-02
    0.94537E+02    0.24263E+00    0.10428E+00
    0.97024E+02    0.22412E+00    0.20975E+00
    0.99512E+02    0.18548E+00    0.46853E+00
    0.10200E+03    0.16003E+00    0.10000E+01
zone i=     42,T= "1dxhc;t= 0.1500E+03y,z:   1  22"
    0.00000E+00    0.49856E+00    0.59242E-17
    0.24878E+01    0.49339E+00    0.16841E-16
    0.49756E+01    0.48321E+00    0.52983E-16
    0.74634E+01    0.47259E+00    0.19801E-15
    0.99512E+01    0.46199E+00    0.77201E-15
    0.12439E+02    0.45265E+00    0.31821E-14
    0.14927E+02    0.44457E+00    0.10735E-13
    0.17415E+02    0.42980E+00    0.41748E-13
    0.19902E+02    0.41793E+00    0.14194E-12
    0.22390E+02    0.40355E+00    0.48832E-12
    0.24878E+02    0.38826E+00    0.12312E-11
    0.27366E+02    0.37437E+00    0.22683E-11
    0.29854E+02    0.35805E+00    0.51641E-11
    0.32341E+02    0.35018E+00    0.11574E-10
    0.34829E+02    0.34557E+00    0.28338E-10
    0.37317E+02    0.33938E+00    0.98331E-10
    0.39805E+02    0.33045E+00    0.38291E-09
    0.42293E+02    0.31902E+00    0.10337E-08
    0.44780E+02    0.30316E+00    0.43475E-08
    0.47268E+02    0.29161E+00    0.90834E-08
    0.49756E+02    0.27223E+00    0.28418E-07
    0.52244E+02    0.24960E+00    0.79439E-07
    0.54732E+02    0.22536E+00    0.17724E-06
    0.57220E+02    0.21220E+00    0.35952E-06
    0.59707E+02    0.20621E+00    0.29455E-06
    0.62195E+02    0.20342E+00    0.30236E-06
    0.64683E+02    0.19989E+00    0.66811E-06
    0.67171E+02    0.19199E+00    0.11051E-05
    0.69659E+02    0.18135E+00    0.20286E-05
    0.72146E+02    0.17299E+00    0.32102E-05
    0.74634E+02    0.16061E+00    0.56414E-05
    0.77122E+02    0.15049E+00    0.92536E-05
    0.79610E+02    0.13453E+00    0.12776E-04
    0.82098E+02    0.12131E+00    0.72996E-05
    0.84585E+02    0.10879E+00   -0.10809E-04
    0.87073E+02    0.97221E-01   -0.86457E-04
    0.89561E+02    0.82139E-01   -0.15188E-03
    0.92049E+02    0.66259E-01   -0.16428E-03
    0.94537E+02    0.53221E-01   -0.56580E-04
    0.97024E+02    0.37899E-01    0.22642E-03
    0.99512E+02    0.18105E-01   -0.55899E-03
    0.10200E+03    0.40866E-02   -0.49926E-03
zone i=     42,T= "1dxhc;t= 0.3000E+03y,z:   1   1"
    0.00000E+00    0.50000E+00    0.00000E+00
    0.24878E+01    0.49340E+00    0.46783E-14
    0.49756E+01    0.48883E+00    0.12377E-13
    0.74634E+01    0.48240E+00    0.28653E-13
    0.99512E+01    0.47485E+00    0.63696E-13
    0.12439E+02    0.47031E+00    0.13768E-12
    0.14927E+02    0.46628E+00    0.15135E-12
    0.17415E+02    0.46208E+00    0.15749E-12
    0.19902E+02    0.45635E+00    0.17145E-12
    0.22390E+02    0.45273E+00    0.80531E-13
    0.24878E+02    0.44948E+00    0.72816E-13
    0.27366E+02    0.44468E+00    0.12440E-12
    0.29854E+02    0.43917E+00    0.54937E-12
    0.32341E+02    0.43350E+00    0.34088E-11
    0.34829E+02    0.42906E+00    0.11762E-10
    0.37317E+02    0.42463E+00    0.33277E-10
    0.39805E+02    0.41957E+00    0.52691E-10
    0.42293E+02    0.41147E+00    0.10300E-09
    0.44780E+02    0.40636E+00    0.62992E-09
    0.47268E+02    0.40072E+00    0.40533E-08
    0.49756E+02    0.39481E+00    0.21538E-07
    0.52244E+02    0.39106E+00    0.60062E-07
    0.54732E+02    0.38568E+00    0.30894E-06
    0.57220E+02    0.38257E+00    0.10955E-05
    0.59707E+02    0.37689E+00    0.57200E-05
    0.62195E+02    0.37287E+00    0.17539E-04
    0.64683E+02    0.36748E+00    0.49953E-04
    0.67171E+02    0.35969E+00    0.22981E-03
    0.69659E+02    0.35512E+00    0.67900E-03
    0.72146E+02    0.35222E+00    0.21260E-02
    0.74634E+02    0.34748E+00    0.73887E-02
    0.77122E+02    0.34256E+00    0.48797E-02
    0.79610E+02    0.34358E+00    0.21613E+00
    0.82098E+02    0.35120E+00    0.43435E+00
    0.84585E+02    0.36290E+00    0.53586E+00
    0.87073E+02    0.37106E+00    0.66949E+00
    0.89561E+02    0.37719E+00    0.78485E+00
    0.92049E+02    0.38322E+00    0.90011E+00
    0.94537E+02    0.38992E+00    0.93296E+00
    0.97024E+02    0.39681E+00    0.94717E+00
    0.99512E+02    0.40700E+00    0.98656E+00
    0.10200E+03    0.40008E+00    0.10000E+01
zone i=     42,T= "1dxhc;t= 0.3000E+03y,z:   1  12"
    0.00000E+00    0.50000E+00    0.00000E+00
    0.24878E+01    0.49228E+00    0.26722E-16
    0.49756E+01    0.48580E+00    0.10551E-15
    0.74634E+01    0.47882E+00    0.40224E-15
    0.99512E+01    0.47543E+00    0.77766E-15
    0.12439E+02    0.46990E+00    0.20372E-14
    0.14927E+02    0.46405E+00    0.43933E-14
    0.17415E+02    0.45843E+00    0.39370E-14
    0.19902E+02    0.45114E+00    0.75683E-14
    0.22390E+02    0.44748E+00    0.64804E-13
    0.24878E+02    0.44478E+00    0.14394E-12
    0.27366E+02    0.44201E+00    0.59571E-12
    0.29854E+02    0.43849E+00    0.11286E-11
    0.32341E+02    0.43536E+00    0.34075E-11
    0.34829E+02    0.43193E+00    0.57726E-11
    0.37317E+02    0.42696E+00    0.10569E-10
    0.39805E+02    0.41945E+00    0.24088E-10
    0.42293E+02    0.41174E+00    0.49956E-10
    0.44780E+02    0.40754E+00    0.13086E-09
    0.47268E+02    0.40257E+00    0.18149E-09
    0.49756E+02    0.39751E+00    0.67622E-09
    0.52244E+02    0.39456E+00    0.25368E-08
    0.54732E+02    0.38975E+00    0.14229E-07
    0.57220E+02    0.38307E+00    0.55635E-07
    0.59707E+02    0.37479E+00    0.12594E-06
    0.62195E+02    0.36669E+00    0.19697E-06
    0.64683E+02    0.35719E+00    0.18491E-06
    0.67171E+02    0.35167E+00    0.98926E-07
    0.69659E+02    0.34285E+00    0.31645E-05
    0.72146E+02    0.33292E+00    0.29805E-04
    0.74634E+02    0.32706E+00    0.88385E-04
    0.77122E+02    0.32243E+00    0.22417E-03
    0.79610E+02    0.31895E+00    0.24845E-03
    0.82098E+02    0.31220E+00    0.26969E-03
    0.84585E+02    0.30462E+00    0.28160E-03
    0.87073E+02    0.29237E+00    0.43695E-02
    0.89561E+02    0.27469E+00    0.60621E-02
    0.92049E+02    0.25251E+00    0.19812E-01
    0.94537E+02    0.23468E+00    0.12393E+00
    0.97024E+02    0.21763E+00    0.22227E+00
    0.99512E+02    0.18276E+00    0.47040E+00
    0.10200E+03    0.16002E+00    0.10000E+01
zone i=     42,T= "1dxhc;t= 0.3000E+03y,z:   1  22"
    0.00000E+00    0.49856E+00    0.44508E-14
    0.24878E+01    0.49340E+00    0.10109E-13
    0.49756E+01    0.48322E+00    0.29199E-13
    0.74634E+01    0.47260E+00    0.89721E-13
    0.99512E+01    0.46201E+00    0.27790E-12
    0.12439E+02    0.45268E+00    0.89750E-12
    0.14927E+02    0.44460E+00    0.23895E-11
    0.17415E+02    0.42984E+00    0.72386E-11
    0.19902E+02    0.41796E+00    0.19434E-10
    0.22390E+02    0.40359E+00    0.53185E-10
    0.24878E+02    0.38831E+00    0.11304E-09
    0.27366E+02    0.37442E+00    0.18675E-09
    0.29854E+02    0.35810E+00    0.37831E-09
    0.32341E+02    0.35023E+00    0.75793E-09
    0.34829E+02    0.34562E+00    0.16080E-08
    0.37317E+02    0.33943E+00    0.44078E-08
    0.39805E+02    0.33050E+00    0.12619E-07
    0.42293E+02    0.31907E+00    0.26950E-07
    0.44780E+02    0.30321E+00    0.83444E-07
    0.47268E+02    0.29165E+00    0.14043E-06
    0.49756E+02    0.27227E+00    0.35026E-06
    0.52244E+02    0.24963E+00    0.75562E-06
    0.54732E+02    0.22538E+00    0.13815E-05
    0.57220E+02    0.21221E+00    0.24769E-05
    0.59707E+02    0.20621E+00    0.22112E-05
    0.62195E+02    0.20342E+00    0.28459E-05
    0.64683E+02    0.19989E+00    0.51831E-05
    0.67171E+02    0.19199E+00    0.82682E-05
    0.69659E+02    0.18133E+00    0.14314E-04
    0.72146E+02    0.17296E+00    0.21550E-04
    0.74634E+02    0.16057E+00    0.35691E-04
    0.77122E+02    0.15044E+00    0.53218E-04
    0.79610E+02    0.13444E+00    0.70777E-04
    0.82098E+02    0.12121E+00    0.69854E-04
    0.84585E+02    0.10866E+00    0.51607E-04
    0.87073E+02    0.97067E-01   -0.10883E-03
    0.89561E+02    0.81958E-01   -0.27323E-03
    0.92049E+02    0.66056E-01   -0.30782E-03
    0.94537E+02    0.53008E-01   -0.28218E-04
    0.97024E+02    0.37708E-01   -0.11306E-04
    0.99512E+02    0.18001E-01   -0.86050E-03
    0.10200E+03    0.40578E-02   -0.11136E-02
zone i=     42,T= "1dxhc;t= 0.4500E+03y,z:   1   1"
    0.00000E+00    0.50000E+00    0.00000E+00
    0.24878E+01    0.49344E+00    0.12295E-12
    0.49756E+01    0.48889E+00    0.32423E-12
    0.74634E+01    0.48250E+00    0.73193E-12
    0.99512E+01    0.47499E+00    0.15546E-11
    0.12439E+02    0.47048E+00    0.31748E-11
    0.14927E+02    0.46647E+00    0.35688E-11
    0.17415E+02    0.46230E+00    0.37606E-11
    0.19902E+02    0.45660E+00    0.43698E-11
    0.22390E+02    0.45300E+00    0.26869E-11
    0.24878E+02    0.44976E+00    0.20583E-11
    0.27366E+02    0.44500E+00    0.35561E-11
    0.29854E+02    0.43951E+00    0.13468E-10
    0.32341E+02    0.43387E+00    0.68540E-10
    0.34829E+02    0.42946E+00    0.21123E-09
    0.37317E+02    0.42505E+00    0.57200E-09
    0.39805E+02    0.42002E+00    0.93454E-09
    0.42293E+02    0.41196E+00    0.21613E-08
    0.44780E+02    0.40688E+00    0.15946E-07
    0.47268E+02    0.40127E+00    0.10813E-06
    0.49756E+02    0.39539E+00    0.59113E-06
    0.52244E+02    0.39167E+00    0.19672E-05
    0.54732E+02    0.38633E+00    0.87414E-05
    0.57220E+02    0.38325E+00    0.26883E-04
    0.59707E+02    0.37767E+00    0.10607E-03
    0.62195E+02    0.37373E+00    0.26875E-03
    0.64683E+02    0.36850E+00    0.66437E-03
    0.67171E+02    0.36110E+00    0.24171E-02
    0.69659E+02    0.35686E+00    0.58901E-02
    0.72146E+02    0.35429E+00    0.16040E-01
    0.74634E+02    0.35060E+00    0.44351E-01
    0.77122E+02    0.35058E+00    0.18966E+00
    0.79610E+02    0.35442E+00    0.40992E+00
    0.82098E+02    0.36322E+00    0.73271E+00
    0.84585E+02    0.37312E+00    0.74514E+00
    0.87073E+02    0.37973E+00    0.79243E+00
    0.89561E+02    0.38453E+00    0.85476E+00
    0.92049E+02    0.38922E+00    0.93417E+00
    0.94537E+02    0.39444E+00    0.95620E+00
    0.97024E+02    0.39978E+00    0.96611E+00
    0.99512E+02    0.40814E+00    0.99306E+00
    0.10200E+03    0.40008E+00    0.10000E+01
zone i=     42,T= "1dxhc;t= 0.4500E+03y,z:   1  12"
    0.00000E+00    0.50000E+00    0.00000E+00
    0.24878E+01    0.49232E+00    0.78127E-15
    0.49756E+01    0.48588E+00    0.29586E-14
    0.74634E+01    0.47894E+00    0.10347E-13
    0.99512E+01    0.47557E+00    0.18932E-13
    0.12439E+02    0.47007E+00    0.46061E-13
    0.14927E+02    0.46426E+00    0.95759E-13
    0.17415E+02    0.45866E+00    0.86388E-13
    0.19902E+02    0.45142E+00    0.19686E-12
    0.22390E+02    0.44778E+00    0.13389E-11
    0.24878E+02    0.44509E+00    0.28776E-11
    0.27366E+02    0.44234E+00    0.10752E-10
    0.29854E+02    0.43883E+00    0.19645E-10
    0.32341E+02    0.43573E+00    0.57257E-10
    0.34829E+02    0.43231E+00    0.98528E-10
    0.37317E+02    0.42736E+00    0.17374E-09
    0.39805E+02    0.41990E+00    0.38817E-09
    0.42293E+02    0.41223E+00    0.73851E-09
    0.44780E+02    0.40805E+00    0.17095E-08
    0.47268E+02    0.40310E+00    0.22337E-08
    0.49756E+02    0.39807E+00    0.72325E-08
    0.52244E+02    0.39514E+00    0.22241E-07
    0.54732E+02    0.39034E+00    0.10064E-06
    0.57220E+02    0.38367E+00    0.33321E-06
    0.59707E+02    0.37540E+00    0.64211E-06
    0.62195E+02    0.36727E+00    0.91789E-06
    0.64683E+02    0.35766E+00    0.85478E-06
    0.67171E+02    0.35197E+00    0.71941E-06
    0.69659E+02    0.34267E+00    0.17355E-04
    0.72146E+02    0.33195E+00    0.11100E-03
    0.74634E+02    0.32553E+00    0.28277E-03
    0.77122E+02    0.32037E+00    0.60672E-03
    0.79610E+02    0.31646E+00    0.67021E-03
    0.82098E+02    0.30896E+00    0.69544E-03
    0.84585E+02    0.30090E+00    0.10069E-02
    0.87073E+02    0.28848E+00    0.76370E-02
    0.89561E+02    0.27089E+00    0.10431E-01
    0.92049E+02    0.24904E+00    0.28665E-01
    0.94537E+02    0.23171E+00    0.13342E+00
    0.97024E+02    0.21528E+00    0.22927E+00
    0.99512E+02    0.18182E+00    0.47305E+00
    0.10200E+03    0.16002E+00    0.10000E+01
zone i=     42,T= "1dxhc;t= 0.4500E+03y,z:   1  22"
    0.00000E+00    0.49856E+00    0.16192E-12
    0.24878E+01    0.49340E+00    0.30467E-12
    0.49756E+01    0.48322E+00    0.83890E-12
    0.74634E+01    0.47261E+00    0.22641E-11
    0.99512E+01    0.46202E+00    0.60124E-11
    0.12439E+02    0.45269E+00    0.16496E-10
    0.14927E+02    0.44461E+00    0.37762E-10
    0.17415E+02    0.42985E+00    0.96640E-10
    0.19902E+02    0.41798E+00    0.22165E-09
    0.22390E+02    0.40361E+00    0.52392E-09
    0.24878E+02    0.38833E+00    0.10103E-08
    0.27366E+02    0.37445E+00    0.15976E-08
    0.29854E+02    0.35812E+00    0.30918E-08
    0.32341E+02    0.35025E+00    0.58925E-08
    0.34829E+02    0.34564E+00    0.11384E-07
    0.37317E+02    0.33945E+00    0.26912E-07
    0.39805E+02    0.33052E+00    0.63947E-07
    0.42293E+02    0.31909E+00    0.12035E-06
    0.44780E+02    0.30322E+00    0.30845E-06
    0.47268E+02    0.29167E+00    0.46688E-06
    0.49756E+02    0.27227E+00    0.10258E-05
    0.52244E+02    0.24963E+00    0.19426E-05
    0.54732E+02    0.22537E+00    0.32337E-05
    0.57220E+02    0.21220E+00    0.54122E-05
    0.59707E+02    0.20620E+00    0.51716E-05
    0.62195E+02    0.20341E+00    0.74448E-05
    0.64683E+02    0.19988E+00    0.12216E-04
    0.67171E+02    0.19197E+00    0.18854E-04
    0.69659E+02    0.18130E+00    0.31062E-04
    0.72146E+02    0.17292E+00    0.44974E-04
    0.74634E+02    0.16052E+00    0.71644E-04
    0.77122E+02    0.15038E+00    0.10237E-03
    0.79610E+02    0.13438E+00    0.13526E-03
    0.82098E+02    0.12113E+00    0.14859E-03
    0.84585E+02    0.10857E+00    0.14825E-03
    0.87073E+02    0.96972E-01   -0.32935E-04
    0.89561E+02    0.81855E-01   -0.23896E-03
    0.92049E+02    0.65946E-01   -0.29047E-03
    0.94537E+02    0.52896E-01    0.78304E-05
    0.97024E+02    0.37607E-01   -0.75395E-04
    0.99512E+02    0.17946E-01   -0.86431E-03
    0.10200E+03    0.40429E-02   -0.11721E-02
zone i=     42,T= "1dxhc;t= 0.6000E+03y,z:   1   1"
    0.00000E+00    0.50000E+00    0.00000E+00
    0.24878E+01    0.49347E+00    0.10591E-11
    0.49756E+01    0.48893E+00    0.27924E-11
    0.74634E+01    0.48257E+00    0.61723E-11
    0.99512E+01    0.47509E+00    0.12748E-10
    0.12439E+02    0.47059E+00    0.25105E-10
    0.14927E+02    0.46660E+00    0.28808E-10
    0.17415E+02    0.46244E+00    0.31290E-10
    0.19902E+02    0.45677E+00    0.38174E-10
    0.22390E+02    0.45318E+00    0.28131E-10
    0.24878E+02    0.44996E+00    0.20787E-10
    0.27366E+02    0.44521E+00    0.36448E-10
    0.29854E+02    0.43974E+00    0.12638E-09
    0.32341E+02    0.43412E+00    0.56993E-09
    0.34829E+02    0.42973E+00    0.17097E-08
    0.37317E+02    0.42533E+00    0.46687E-08
    0.39805E+02    0.42032E+00    0.85874E-08
    0.42293E+02    0.41229E+00    0.21792E-07
    0.44780E+02    0.40724E+00    0.16093E-06
    0.47268E+02    0.40165E+00    0.90558E-06
    0.49756E+02    0.39579E+00    0.39787E-05
    0.52244E+02    0.39209E+00    0.10704E-04
    0.54732E+02    0.38679E+00    0.35971E-04
    0.57220E+02    0.38374E+00    0.83381E-04
    0.59707E+02    0.37823E+00    0.25231E-03
    0.62195E+02    0.37437E+00    0.55328E-03
    0.64683E+02    0.36929E+00    0.12555E-02
    0.67171E+02    0.36221E+00    0.40230E-02
    0.69659E+02    0.35829E+00    0.89413E-02
    0.72146E+02    0.35593E+00    0.19969E-01
    0.74634E+02    0.35332E+00   -0.34098E-01
    0.77122E+02    0.35795E+00    0.41661E+00
    0.79610E+02    0.36263E+00    0.65450E+00
    0.82098E+02    0.37049E+00    0.82619E+00
    0.84585E+02    0.37924E+00    0.83408E+00
    0.87073E+02    0.38477E+00    0.86097E+00
    0.89561E+02    0.38872E+00    0.89644E+00
    0.92049E+02    0.39258E+00    0.95181E+00
    0.94537E+02    0.39694E+00    0.96692E+00
    0.97024E+02    0.40139E+00    0.97415E+00
    0.99512E+02    0.40875E+00    0.99572E+00
    0.10200E+03    0.40008E+00    0.10000E+01
zone i=     42,T= "1dxhc;t= 0.6000E+03y,z:   1  12"
    0.00000E+00    0.50000E+00    0.00000E+00
    0.24878E+01    0.49235E+00    0.89024E-14
    0.49756E+01    0.48593E+00    0.32445E-13
    0.74634E+01    0.47902E+00    0.10796E-12
    0.99512E+01    0.47567E+00    0.18961E-12
    0.12439E+02    0.47019E+00    0.43850E-12
    0.14927E+02    0.46439E+00    0.87904E-12
    0.17415E+02    0.45882E+00    0.82952E-12
    0.19902E+02    0.45161E+00    0.19338E-11
    0.22390E+02    0.44798E+00    0.11116E-10
    0.24878E+02    0.44530E+00    0.23083E-10
    0.27366E+02    0.44256E+00    0.78068E-10
    0.29854E+02    0.43907E+00    0.13498E-09
    0.32341E+02    0.43597E+00    0.37377E-09
    0.34829E+02    0.43257E+00    0.61739E-09
    0.37317E+02    0.42764E+00    0.10590E-08
    0.39805E+02    0.42020E+00    0.22234E-08
    0.42293E+02    0.41256E+00    0.39570E-08
    0.44780E+02    0.40840E+00    0.83517E-08
    0.47268E+02    0.40347E+00    0.10516E-07
    0.49756E+02    0.39845E+00    0.31142E-07
    0.52244E+02    0.39553E+00    0.83451E-07
    0.54732E+02    0.39075E+00    0.32167E-06
    0.57220E+02    0.38409E+00    0.94084E-06
    0.59707E+02    0.37581E+00    0.16709E-05
    0.62195E+02    0.36767E+00    0.22763E-05
    0.64683E+02    0.35796E+00    0.20308E-05
    0.67171E+02    0.35214E+00    0.26234E-05
    0.69659E+02    0.34243E+00    0.47087E-04
    0.72146E+02    0.33109E+00    0.22804E-03
    0.74634E+02    0.32423E+00    0.54145E-03
    0.77122E+02    0.31869E+00    0.10234E-02
    0.79610E+02    0.31450E+00    0.11271E-02
    0.82098E+02    0.30664E+00    0.12025E-02
    0.84585E+02    0.29844E+00    0.18827E-02
    0.87073E+02    0.28608E+00    0.10215E-01
    0.89561E+02    0.26866E+00    0.13890E-01
    0.92049E+02    0.24709E+00    0.34175E-01
    0.94537E+02    0.23007E+00    0.13879E+00
    0.97024E+02    0.21400E+00    0.23337E+00
    0.99512E+02    0.18131E+00    0.47511E+00
    0.10200E+03    0.16002E+00    0.10000E+01
zone i=     42,T= "1dxhc;t= 0.6000E+03y,z:   1  22"
    0.00000E+00    0.49856E+00    0.15387E-11
    0.24878E+01    0.49340E+00    0.24912E-11
    0.49756E+01    0.48323E+00    0.66454E-11
    0.74634E+01    0.47262E+00    0.16374E-10
    0.99512E+01    0.46203E+00    0.39011E-10
    0.12439E+02    0.45269E+00    0.95372E-10
    0.14927E+02    0.44462E+00    0.19696E-09
    0.17415E+02    0.42986E+00    0.44649E-09
    0.19902E+02    0.41799E+00    0.91589E-09
    0.22390E+02    0.40362E+00    0.19591E-08
    0.24878E+02    0.38834E+00    0.35534E-08
    0.27366E+02    0.37446E+00    0.55148E-08
    0.29854E+02    0.35813E+00    0.10464E-07
    0.32341E+02    0.35026E+00    0.19357E-07
    0.34829E+02    0.34565E+00    0.35149E-07
    0.37317E+02    0.33945E+00    0.75279E-07
    0.39805E+02    0.33052E+00    0.15817E-06
    0.42293E+02    0.31909E+00    0.27500E-06
    0.44780E+02    0.30323E+00    0.62147E-06
    0.47268E+02    0.29167E+00    0.88439E-06
    0.49756E+02    0.27227E+00    0.17926E-05
    0.52244E+02    0.24962E+00    0.31473E-05
    0.54732E+02    0.22536E+00    0.49667E-05
    0.57220E+02    0.21218E+00    0.79676E-05
    0.59707E+02    0.20618E+00    0.78953E-05
    0.62195E+02    0.20339E+00    0.11900E-04
    0.64683E+02    0.19985E+00    0.18569E-04
    0.67171E+02    0.19194E+00    0.28069E-04
    0.69659E+02    0.18127E+00    0.44854E-04
    0.72146E+02    0.17289E+00    0.63506E-04
    0.74634E+02    0.16048E+00    0.98956E-04
    0.77122E+02    0.15034E+00    0.13844E-03
    0.79610E+02    0.13432E+00    0.18200E-03
    0.82098E+02    0.12107E+00    0.20642E-03
    0.84585E+02    0.10851E+00    0.22081E-03
    0.87073E+02    0.96907E-01    0.36226E-04
    0.89561E+02    0.81786E-01   -0.17791E-03
    0.92049E+02    0.65875E-01   -0.22958E-03
    0.94537E+02    0.52823E-01    0.72054E-04
    0.97024E+02    0.37543E-01   -0.40781E-04
    0.99512E+02    0.17911E-01   -0.82181E-03
    0.10200E+03    0.40340E-02   -0.11170E-02
zone i=     42,T= "1dxhc;t= 0.7500E+03y,z:   1   1"
    0.00000E+00    0.50000E+00    0.00000E+00
    0.24878E+01    0.49349E+00    0.49856E-11
    0.49756E+01    0.48897E+00    0.13186E-10
    0.74634E+01    0.48262E+00    0.28708E-10
    0.99512E+01    0.47516E+00    0.58335E-10
    0.12439E+02    0.47067E+00    0.11229E-09
    0.14927E+02    0.46670E+00    0.13102E-09
    0.17415E+02    0.46255E+00    0.14705E-09
    0.19902E+02    0.45689E+00    0.18685E-09
    0.22390E+02    0.45331E+00    0.15552E-09
    0.24878E+02    0.45010E+00    0.11780E-09
    0.27366E+02    0.44536E+00    0.21190E-09
    0.29854E+02    0.43991E+00    0.69876E-09
    0.32341E+02    0.43431E+00    0.28958E-08
    0.34829E+02    0.42992E+00    0.85412E-08
    0.37317E+02    0.42554E+00    0.22983E-07
    0.39805E+02    0.42055E+00    0.43725E-07
    0.42293E+02    0.41254E+00    0.10856E-06
    0.44780E+02    0.40750E+00    0.69657E-06
    0.47268E+02    0.40193E+00    0.31561E-05
    0.49756E+02    0.39609E+00    0.11809E-04
    0.52244E+02    0.39241E+00    0.28846E-04
    0.54732E+02    0.38714E+00    0.91329E-04
    0.57220E+02    0.38412E+00    0.21176E-03
    0.59707E+02    0.37868E+00    0.65958E-03
    0.62195E+02    0.37490E+00    0.14739E-02
    0.64683E+02    0.36996E+00    0.33177E-02
    0.67171E+02    0.36322E+00    0.10878E-01
    0.69659E+02    0.35965E+00    0.24408E-01
    0.72146E+02    0.35775E+00    0.56798E-01
    0.74634E+02    0.35623E+00    0.38250E-01
    0.77122E+02    0.36246E+00    0.44353E+00
    0.79610E+02    0.36747E+00    0.69581E+00
    0.82098E+02    0.37514E+00    0.87832E+00
    0.84585E+02    0.38322E+00    0.88002E+00
    0.87073E+02    0.38808E+00    0.90071E+00
    0.89561E+02    0.39147E+00    0.92385E+00
    0.92049E+02    0.39477E+00    0.96319E+00
    0.94537E+02    0.39856E+00    0.97357E+00
    0.97024E+02    0.40242E+00    0.97900E+00
    0.99512E+02    0.40914E+00    0.99714E+00
    0.10200E+03    0.40008E+00    0.10000E+01
zone i=     42,T= "1dxhc;t= 0.7500E+03y,z:   1  12"
    0.00000E+00    0.50000E+00    0.00000E+00
    0.24878E+01    0.49238E+00    0.56024E-13
    0.49756E+01    0.48597E+00    0.19777E-12
    0.74634E+01    0.47908E+00    0.62688E-12
    0.99512E+01    0.47574E+00    0.10597E-11
    0.12439E+02    0.47027E+00    0.23322E-11
    0.14927E+02    0.46449E+00    0.44991E-11
    0.17415E+02    0.45893E+00    0.43966E-11
    0.19902E+02    0.45174E+00    0.10140E-10
    0.22390E+02    0.44812E+00    0.50809E-10
    0.24878E+02    0.44545E+00    0.10160E-09
    0.27366E+02    0.44272E+00    0.31440E-09
    0.29854E+02    0.43924E+00    0.52318E-09
    0.32341E+02    0.43615E+00    0.13880E-08
    0.34829E+02    0.43276E+00    0.22232E-08
    0.37317E+02    0.42784E+00    0.36616E-08
    0.39805E+02    0.42043E+00    0.72397E-08
    0.42293E+02    0.41281E+00    0.12179E-07
    0.44780E+02    0.40865E+00    0.24340E-07
    0.47268E+02    0.40374E+00    0.30242E-07
    0.49756E+02    0.39874E+00    0.83091E-07
    0.52244E+02    0.39583E+00    0.20130E-06
    0.54732E+02    0.39106E+00    0.68531E-06
    0.57220E+02    0.38440E+00    0.18209E-05
    0.59707E+02    0.37612E+00    0.30972E-05
    0.62195E+02    0.36797E+00    0.41306E-05
    0.64683E+02    0.35816E+00    0.35544E-05
    0.67171E+02    0.35223E+00    0.65493E-05
    0.69659E+02    0.34219E+00    0.90301E-04
    0.72146E+02    0.33036E+00    0.35901E-03
    0.74634E+02    0.32317E+00    0.79499E-03
    0.77122E+02    0.31736E+00    0.13986E-02
    0.79610E+02    0.31299E+00    0.15279E-02
    0.82098E+02    0.30494E+00    0.17142E-02
    0.84585E+02    0.29672E+00    0.27361E-02
    0.87073E+02    0.28444E+00    0.12216E-01
    0.89561E+02    0.26717E+00    0.16565E-01
    0.92049E+02    0.24579E+00    0.37816E-01
    0.94537E+02    0.22899E+00    0.14197E+00
    0.97024E+02    0.21315E+00    0.23569E+00
    0.99512E+02    0.18097E+00    0.47633E+00
    0.10200E+03    0.16002E+00    0.10000E+01
zone i=     42,T= "1dxhc;t= 0.7500E+03y,z:   1  22"
    0.00000E+00    0.49856E+00    0.70224E-11
    0.24878E+01    0.49340E+00    0.10116E-10
    0.49756E+01    0.48323E+00    0.26363E-10
    0.74634E+01    0.47262E+00    0.60791E-10
    0.99512E+01    0.46203E+00    0.13380E-09
    0.12439E+02    0.45270E+00    0.30051E-09
    0.14927E+02    0.44462E+00    0.57651E-09
    0.17415E+02    0.42986E+00    0.11940E-08
    0.19902E+02    0.41799E+00    0.22559E-08
    0.22390E+02    0.40362E+00    0.44918E-08
    0.24878E+02    0.38834E+00    0.78139E-08
    0.27366E+02    0.37446E+00    0.12016E-07
    0.29854E+02    0.35813E+00    0.22572E-07
    0.32341E+02    0.35026E+00    0.40914E-07
    0.34829E+02    0.34565E+00    0.71287E-07
    0.37317E+02    0.33946E+00    0.14264E-06
    0.39805E+02    0.33052E+00    0.27535E-06
    0.42293E+02    0.31909E+00    0.45376E-06
    0.44780E+02    0.30322E+00    0.94016E-06
    0.47268E+02    0.29166E+00    0.12861E-05
    0.49756E+02    0.27226E+00    0.24690E-05
    0.52244E+02    0.24961E+00    0.41342E-05
    0.54732E+02    0.22534E+00    0.63119E-05
    0.57220E+02    0.21216E+00    0.98522E-05
    0.59707E+02    0.20616E+00    0.99451E-05
    0.62195E+02    0.20336E+00    0.15272E-04
    0.64683E+02    0.19983E+00    0.23204E-04
    0.67171E+02    0.19192E+00    0.34619E-04
    0.69659E+02    0.18124E+00    0.54315E-04
    0.72146E+02    0.17286E+00    0.75915E-04
    0.74634E+02    0.16045E+00    0.11678E-03
    0.77122E+02    0.15030E+00    0.16157E-03
    0.79610E+02    0.13428E+00    0.21166E-03
    0.82098E+02    0.12103E+00    0.24309E-03
    0.84585E+02    0.10846E+00    0.26698E-03
    0.87073E+02    0.96858E-01    0.82588E-04
    0.89561E+02    0.81737E-01   -0.13058E-03
    0.92049E+02    0.65826E-01   -0.17715E-03
    0.94537E+02    0.52774E-01    0.12975E-03
    0.97024E+02    0.37500E-01    0.49894E-05
    0.99512E+02    0.17888E-01   -0.78491E-03
    0.10200E+03    0.40283E-02   -0.10606E-02
zone i=     42,T= "1dxhc;t= 0.9000E+03y,z:   1   1"
    0.00000E+00    0.50000E+00    0.00000E+00
    0.24878E+01    0.49350E+00    0.16160E-10
    0.49756E+01    0.48899E+00    0.42836E-10