title="2d K section "
variables="x","z","Kx","logKx","Kz","logKz","porosity"
zone i=    22, j=    42,T="Initial K at t=0"
   0.0000000E+00   0.0000000E+00   0.1152623E-03  -0.3938313E+01   0.1152623E-03  -0.3938313E+01   0.3000000E+00
   0.0000000E+00   0.9761905E+00   0.8071388E-04  -0.4093052E+01   0.8071388E-04  -0.4093052E+01   0.3000000E+00
   0.0000000E+00   0.1952381E+01   0.8118338E-04  -0.4090533E+01   0.8118338E-04  -0.4090533E+01   0.3000000E+00
   0.0000000E+00   0.2928571E+01   0.2864877E-04  -0.4542894E+01   0.2864877E-04  -0.4542894E+01   0.3000000E+00
   0.0000000E+00   0.3904762E+01   0.2987466E-04  -0.4524697E+01   0.2987466E-04  -0.4524697E+01   0.3000000E+00
   0.0000000E+00   0.4880952E+01   0.1229030E-04  -0.4910437E+01   0.1229030E-04  -0.4910437E+01   0.3000000E+00
   0.0000000E+00   0.5857143E+01   0.2738541E-04  -0.4562481E+01   0.2738541E-04  -0.4562481E+01   0.3000000E+00
   0.0000000E+00   0.6833333E+01   0.3097593E-04  -0.4508976E+01   0.3097593E-04  -0.4508976E+01   0.3000000E+00
   0.0000000E+00   0.7809524E+01   0.4722912E-04  -0.4325790E+01   0.4722912E-04  -0.4325790E+01   0.3000000E+00
   0.0000000E+00   0.8785714E+01   0.3012365E-04  -0.4521092E+01   0.3012365E-04  -0.4521092E+01   0.3000000E+00
   0.0000000E+00   0.9761905E+01   0.4678256E-04  -0.4329916E+01   0.4678256E-04  -0.4329916E+01   0.3000000E+00
   0.0000000E+00   0.1073810E+02   0.1456586E-06  -0.6836664E+01   0.1456586E-06  -0.6836664E+01   0.3000000E+00
   0.0000000E+00   0.1171429E+02   0.3451403E-07  -0.7462004E+01   0.3451403E-07  -0.7462004E+01   0.3000000E+00
   0.0000000E+00   0.1269048E+02   0.8877019E-08  -0.8051733E+01   0.8877019E-08  -0.8051733E+01   0.3000000E+00
   0.0000000E+00   0.1366667E+02   0.1302084E-08  -0.8885361E+01   0.1302084E-08  -0.8885361E+01   0.3000000E+00
   0.0000000E+00   0.1464286E+02   0.1639458E-08  -0.8785300E+01   0.1639458E-08  -0.8785300E+01   0.3000000E+00
   0.0000000E+00   0.1561905E+02   0.4619218E-04  -0.4335432E+01   0.4619218E-04  -0.4335432E+01   0.3000000E+00
   0.0000000E+00   0.1659524E+02   0.4256833E-04  -0.4370913E+01   0.4256833E-04  -0.4370913E+01   0.3000000E+00
   0.0000000E+00   0.1757143E+02   0.5950204E-04  -0.4225468E+01   0.5950204E-04  -0.4225468E+01   0.3000000E+00
   0.0000000E+00   0.1854762E+02   0.9599639E-04  -0.4017745E+01   0.9599639E-04  -0.4017745E+01   0.3000000E+00
   0.0000000E+00   0.1952381E+02   0.7049280E-04  -0.4151855E+01   0.7049280E-04  -0.4151855E+01   0.3000000E+00
   0.0000000E+00   0.2050000E+02   0.7049280E-04  -0.4151855E+01   0.7049280E-04  -0.4151855E+01   0.3000000E+00
   0.2487805E+01   0.0000000E+00   0.1075774E-03  -0.3968279E+01   0.1075774E-03  -0.3968279E+01   0.3000000E+00
   0.2487805E+01   0.9761905E+00   0.1494573E-03  -0.3825483E+01   0.1494573E-03  -0.3825483E+01   0.3000000E+00
   0.2487805E+01   0.1952381E+01   0.2113912E-03  -0.3674913E+01   0.2113912E-03  -0.3674913E+01   0.3000000E+00
   0.2487805E+01   0.2928571E+01   0.1276907E-03  -0.3893841E+01   0.1276907E-03  -0.3893841E+01   0.3000000E+00
   0.2487805E+01   0.3904762E+01   0.1893876E-04  -0.4722648E+01   0.1893876E-04  -0.4722648E+01   0.3000000E+00
   0.2487805E+01   0.4880952E+01   0.3296712E-04  -0.4481919E+01   0.3296712E-04  -0.4481919E+01   0.3000000E+00
   0.2487805E+01   0.5857143E+01   0.3312243E-04  -0.4479878E+01   0.3312243E-04  -0.4479878E+01   0.3000000E+00
   0.2487805E+01   0.6833333E+01   0.5147574E-04  -0.4288397E+01   0.5147574E-04  -0.4288397E+01   0.3000000E+00
   0.2487805E+01   0.7809524E+01   0.5692363E-04  -0.4244707E+01   0.5692363E-04  -0.4244707E+01   0.3000000E+00
   0.2487805E+01   0.8785714E+01   0.5897482E-04  -0.4229333E+01   0.5897482E-04  -0.4229333E+01   0.3000000E+00
   0.2487805E+01   0.9761905E+01   0.4381650E-04  -0.4358362E+01   0.4381650E-04  -0.4358362E+01   0.3000000E+00
   0.2487805E+01   0.1073810E+02   0.6411420E-07  -0.7193046E+01   0.6411420E-07  -0.7193046E+01   0.3000000E+00
   0.2487805E+01   0.1171429E+02   0.6038048E-07  -0.7219103E+01   0.6038048E-07  -0.7219103E+01   0.3000000E+00
   0.2487805E+01   0.1269048E+02   0.1973642E-07  -0.7704732E+01   0.1973642E-07  -0.7704732E+01   0.3000000E+00
   0.2487805E+01   0.1366667E+02   0.2165315E-08  -0.8664479E+01   0.2165315E-08  -0.8664479E+01   0.3000000E+00
   0.2487805E+01   0.1464286E+02   0.7070459E-04  -0.4150552E+01   0.7070459E-04  -0.4150552E+01   0.3000000E+00
   0.2487805E+01   0.1561905E+02   0.5182178E-04  -0.4285488E+01   0.5182178E-04  -0.4285488E+01   0.3000000E+00
   0.2487805E+01   0.1659524E+02   0.4444314E-04  -0.4352195E+01   0.4444314E-04  -0.4352195E+01   0.3000000E+00
   0.2487805E+01   0.1757143E+02   0.4550447E-04  -0.4341946E+01   0.4550447E-04  -0.4341946E+01   0.3000000E+00
   0.2487805E+01   0.1854762E+02   0.4617371E-04  -0.4335605E+01   0.4617371E-04  -0.4335605E+01   0.3000000E+00
   0.2487805E+01   0.1952381E+02   0.3628885E-04  -0.4440227E+01   0.3628885E-04  -0.4440227E+01   0.3000000E+00
   0.2487805E+01   0.2050000E+02   0.3628885E-04  -0.4440227E+01   0.3628885E-04  -0.4440227E+01   0.3000000E+00
   0.4975610E+01   0.0000000E+00   0.5974650E-04  -0.4223688E+01   0.5974650E-04  -0.4223688E+01   0.3000000E+00
   0.4975610E+01   0.9761905E+00   0.7728582E-04  -0.4111900E+01   0.7728582E-04  -0.4111900E+01   0.3000000E+00
   0.4975610E+01   0.1952381E+01   0.8795370E-04  -0.4055746E+01   0.8795370E-04  -0.4055746E+01   0.3000000E+00
   0.4975610E+01   0.2928571E+01   0.6461913E-04  -0.4189639E+01   0.6461913E-04  -0.4189639E+01   0.3000000E+00
   0.4975610E+01   0.3904762E+01   0.2944755E-04  -0.4530951E+01   0.2944755E-04  -0.4530951E+01   0.3000000E+00
   0.4975610E+01   0.4880952E+01   0.5466975E-04  -0.4262253E+01   0.5466975E-04  -0.4262253E+01   0.3000000E+00
   0.4975610E+01   0.5857143E+01   0.3956760E-04  -0.4402660E+01   0.3956760E-04  -0.4402660E+01   0.3000000E+00
   0.4975610E+01   0.6833333E+01   0.5168205E-04  -0.4286660E+01   0.5168205E-04  -0.4286660E+01   0.3000000E+00
   0.4975610E+01   0.7809524E+01   0.6476145E-04  -0.4188683E+01   0.6476145E-04  -0.4188683E+01   0.3000000E+00
   0.4975610E+01   0.8785714E+01   0.5807356E-04  -0.4236022E+01   0.5807356E-04  -0.4236022E+01   0.3000000E+00
   0.4975610E+01   0.9761905E+01   0.4428343E-04  -0.4353759E+01   0.4428343E-04  -0.4353759E+01   0.3000000E+00
   0.4975610E+01   0.1073810E+02   0.9161233E-07  -0.7038046E+01   0.9161233E-07  -0.7038046E+01   0.3000000E+00
   0.4975610E+01   0.1171429E+02   0.8030773E-07  -0.7095243E+01   0.8030773E-07  -0.7095243E+01   0.3000000E+00
   0.4975610E+01   0.1269048E+02   0.2353211E-07  -0.7628339E+01   0.2353211E-07  -0.7628339E+01   0.3000000E+00
   0.4975610E+01   0.1366667E+02   0.4644881E-08  -0.8333025E+01   0.4644881E-08  -0.8333025E+01   0.3000000E+00
   0.4975610E+01   0.1464286E+02   0.6289776E-04  -0.4201365E+01   0.6289776E-04  -0.4201365E+01   0.3000000E+00
   0.4975610E+01   0.1561905E+02   0.6821132E-04  -0.4166144E+01   0.6821132E-04  -0.4166144E+01   0.3000000E+00
   0.4975610E+01   0.1659524E+02   0.4697946E-04  -0.4328092E+01   0.4697946E-04  -0.4328092E+01   0.3000000E+00
   0.4975610E+01   0.1757143E+02   0.3795915E-04  -0.4420684E+01   0.3795915E-04  -0.4420684E+01   0.3000000E+00
   0.4975610E+01   0.1854762E+02   0.3249579E-04  -0.4488173E+01   0.3249579E-04  -0.4488173E+01   0.3000000E+00
   0.4975610E+01   0.1952381E+02   0.2787445E-04  -0.4554794E+01   0.2787445E-04  -0.4554794E+01   0.3000000E+00
   0.4975610E+01   0.2050000E+02   0.2787445E-04  -0.4554794E+01   0.2787445E-04  -0.4554794E+01   0.3000000E+00
   0.7463415E+01   0.0000000E+00   0.5401763E-04  -0.4267464E+01   0.5401763E-04  -0.4267464E+01   0.3000000E+00
   0.7463415E+01   0.9761905E+00   0.4840536E-04  -0.4315107E+01   0.4840536E-04  -0.4315107E+01   0.3000000E+00
   0.7463415E+01   0.1952381E+01   0.4218693E-04  -0.4374822E+01   0.4218693E-04  -0.4374822E+01   0.3000000E+00
   0.7463415E+01   0.2928571E+01   0.5491632E-04  -0.4260299E+01   0.5491632E-04  -0.4260299E+01   0.3000000E+00
   0.7463415E+01   0.3904762E+01   0.1266605E-03  -0.3897359E+01   0.1266605E-03  -0.3897359E+01   0.3000000E+00
   0.7463415E+01   0.4880952E+01   0.5941285E-04  -0.4226120E+01   0.5941285E-04  -0.4226120E+01   0.3000000E+00
   0.7463415E+01   0.5857143E+01   0.6909004E-04  -0.4160585E+01   0.6909004E-04  -0.4160585E+01   0.3000000E+00
   0.7463415E+01   0.6833333E+01   0.9859401E-04  -0.4006149E+01   0.9859401E-04  -0.4006149E+01   0.3000000E+00
   0.7463415E+01   0.7809524E+01   0.6279720E-04  -0.4202060E+01   0.6279720E-04  -0.4202060E+01   0.3000000E+00
   0.7463415E+01   0.8785714E+01   0.8435302E-04  -0.4073899E+01   0.8435302E-04  -0.4073899E+01   0.3000000E+00
   0.7463415E+01   0.9761905E+01   0.1063048E-03  -0.3973447E+01   0.1063048E-03  -0.3973447E+01   0.3000000E+00
   0.7463415E+01   0.1073810E+02   0.5913754E-07  -0.7228137E+01   0.5913754E-07  -0.7228137E+01   0.3000000E+00
   0.7463415E+01   0.1171429E+02   0.1208036E-06  -0.6917920E+01   0.1208036E-06  -0.6917920E+01   0.3000000E+00
   0.7463415E+01   0.1269048E+02   0.5819886E-07  -0.7235085E+01   0.5819886E-07  -0.7235085E+01   0.3000000E+00
   0.7463415E+01   0.1366667E+02   0.5276594E-07  -0.7277646E+01   0.5276594E-07  -0.7277646E+01   0.3000000E+00
   0.7463415E+01   0.1464286E+02   0.5827718E-04  -0.4234501E+01   0.5827718E-04  -0.4234501E+01   0.3000000E+00
   0.7463415E+01   0.1561905E+02   0.4911726E-04  -0.4308766E+01   0.4911726E-04  -0.4308766E+01   0.3000000E+00
   0.7463415E+01   0.1659524E+02   0.3444316E-04  -0.4462897E+01   0.3444316E-04  -0.4462897E+01   0.3000000E+00
   0.7463415E+01   0.1757143E+02   0.3016284E-04  -0.4520528E+01   0.3016284E-04  -0.4520528E+01   0.3000000E+00
   0.7463415E+01   0.1854762E+02   0.2421351E-04  -0.4615942E+01   0.2421351E-04  -0.4615942E+01   0.3000000E+00
   0.7463415E+01   0.1952381E+02   0.2497838E-04  -0.4602436E+01   0.2497838E-04  -0.4602436E+01   0.3000000E+00
   0.7463415E+01   0.2050000E+02   0.2497838E-04  -0.4602436E+01   0.2497838E-04  -0.4602436E+01   0.3000000E+00
   0.9951220E+01   0.0000000E+00   0.1143553E-03  -0.3941744E+01   0.1143553E-03  -0.3941744E+01   0.3000000E+00
   0.9951220E+01   0.9761905E+00   0.6071013E-04  -0.4216739E+01   0.6071013E-04  -0.4216739E+01   0.3000000E+00
   0.9951220E+01   0.1952381E+01   0.3552762E-04  -0.4449434E+01   0.3552762E-04  -0.4449434E+01   0.3000000E+00
   0.9951220E+01   0.2928571E+01   0.6858752E-04  -0.4163755E+01   0.6858752E-04  -0.4163755E+01   0.3000000E+00
   0.9951220E+01   0.3904762E+01   0.1001742E-03  -0.3999244E+01   0.1001742E-03  -0.3999244E+01   0.3000000E+00
   0.9951220E+01   0.4880952E+01   0.4804848E-04  -0.4318320E+01   0.4804848E-04  -0.4318320E+01   0.3000000E+00
   0.9951220E+01   0.5857143E+01   0.1118670E-03  -0.3951298E+01   0.1118670E-03  -0.3951298E+01   0.3000000E+00
   0.9951220E+01   0.6833333E+01   0.8800649E-04  -0.4055485E+01   0.8800649E-04  -0.4055485E+01   0.3000000E+00
   0.9951220E+01   0.7809524E+01   0.1019427E-03  -0.3991644E+01   0.1019427E-03  -0.3991644E+01   0.3000000E+00
   0.9951220E+01   0.8785714E+01   0.7923440E-04  -0.4101086E+01   0.7923440E-04  -0.4101086E+01   0.3000000E+00
   0.9951220E+01   0.9761905E+01   0.5907516E-04  -0.4228595E+01   0.5907516E-04  -0.4228595E+01   0.3000000E+00
   0.9951220E+01   0.1073810E+02   0.1169640E-06  -0.6931948E+01   0.1169640E-06  -0.6931948E+01   0.3000000E+00
   0.9951220E+01   0.1171429E+02   0.1865811E-06  -0.6729132E+01   0.1865811E-06  -0.6729132E+01   0.3000000E+00
   0.9951220E+01   0.1269048E+02   0.1376296E-06  -0.6861288E+01   0.1376296E-06  -0.6861288E+01   0.3000000E+00
   0.9951220E+01   0.1366667E+02   0.4186147E-07  -0.7378186E+01   0.4186147E-07  -0.7378186E+01   0.3000000E+00
   0.9951220E+01   0.1464286E+02   0.4612295E-04  -0.4336083E+01   0.4612295E-04  -0.4336083E+01   0.3000000E+00
   0.9951220E+01   0.1561905E+02   0.5067388E-04  -0.4295216E+01   0.5067388E-04  -0.4295216E+01   0.3000000E+00
   0.9951220E+01   0.1659524E+02   0.5509784E-04  -0.4258865E+01   0.5509784E-04  -0.4258865E+01   0.3000000E+00
   0.9951220E+01   0.1757143E+02   0.4279026E-04  -0.4368655E+01   0.4279026E-04  -0.4368655E+01   0.3000000E+00
   0.9951220E+01   0.1854762E+02   0.2150339E-04  -0.4667493E+01   0.2150339E-04  -0.4667493E+01   0.3000000E+00
   0.9951220E+01   0.1952381E+02   0.2638012E-04  -0.4578723E+01   0.2638012E-04  -0.4578723E+01   0.3000000E+00
   0.9951220E+01   0.2050000E+02   0.2638012E-04  -0.4578723E+01   0.2638012E-04  -0.4578723E+01   0.3000000E+00
   0.1243902E+02   0.0000000E+00   0.1427380E-03  -0.3845460E+01   0.1427380E-03  -0.3845460E+01   0.3000000E+00
   0.1243902E+02   0.9761905E+00   0.5690656E-04  -0.4244838E+01   0.5690656E-04  -0.4244838E+01   0.3000000E+00
   0.1243902E+02   0.1952381E+01   0.3771699E-04  -0.4423463E+01   0.3771699E-04  -0.4423463E+01   0.3000000E+00
   0.1243902E+02   0.2928571E+01   0.3968648E-04  -0.4401357E+01   0.3968648E-04  -0.4401357E+01   0.3000000E+00
   0.1243902E+02   0.3904762E+01   0.4291883E-04  -0.4367352E+01   0.4291883E-04  -0.4367352E+01   0.3000000E+00
   0.1243902E+02   0.4880952E+01   0.1189747E-03  -0.3924546E+01   0.1189747E-03  -0.3924546E+01   0.3000000E+00
   0.1243902E+02   0.5857143E+01   0.1145041E-03  -0.3941179E+01   0.1145041E-03  -0.3941179E+01   0.3000000E+00
   0.1243902E+02   0.6833333E+01   0.6617552E-04  -0.4179303E+01   0.6617552E-04  -0.4179303E+01   0.3000000E+00
   0.1243902E+02   0.7809524E+01   0.6701460E-04  -0.4173831E+01   0.6701460E-04  -0.4173831E+01   0.3000000E+00
   0.1243902E+02   0.8785714E+01   0.6335226E-04  -0.4198238E+01   0.6335226E-04  -0.4198238E+01   0.3000000E+00
   0.1243902E+02   0.9761905E+01   0.5258919E-04  -0.4279104E+01   0.5258919E-04  -0.4279104E+01   0.3000000E+00
   0.1243902E+02   0.1073810E+02   0.1217130E-06  -0.6914663E+01   0.1217130E-06  -0.6914663E+01   0.3000000E+00
   0.1243902E+02   0.1171429E+02   0.1735500E-06  -0.6760575E+01   0.1735500E-06  -0.6760575E+01   0.3000000E+00
   0.1243902E+02   0.1269048E+02   0.8651050E-07  -0.7062931E+01   0.8651050E-07  -0.7062931E+01   0.3000000E+00
   0.1243902E+02   0.1366667E+02   0.1038000E-06  -0.6983803E+01   0.1038000E-06  -0.6983803E+01   0.3000000E+00
   0.1243902E+02   0.1464286E+02   0.1170628E-03  -0.3931581E+01   0.1170628E-03  -0.3931581E+01   0.3000000E+00
   0.1243902E+02   0.1561905E+02   0.9014420E-04  -0.4045062E+01   0.9014420E-04  -0.4045062E+01   0.3000000E+00
   0.1243902E+02   0.1659524E+02   0.5762812E-04  -0.4239366E+01   0.5762812E-04  -0.4239366E+01   0.3000000E+00
   0.1243902E+02   0.1757143E+02   0.3851742E-04  -0.4414343E+01   0.3851742E-04  -0.4414343E+01   0.3000000E+00
   0.1243902E+02   0.1854762E+02   0.2032213E-04  -0.4692031E+01   0.2032213E-04  -0.4692031E+01   0.3000000E+00
   0.1243902E+02   0.1952381E+02   0.2501087E-04  -0.4601871E+01   0.2501087E-04  -0.4601871E+01   0.3000000E+00
   0.1243902E+02   0.2050000E+02   0.2501087E-04  -0.4601871E+01   0.2501087E-04  -0.4601871E+01   0.3000000E+00
   0.1492683E+02   0.0000000E+00   0.9443489E-04  -0.4024868E+01   0.9443489E-04  -0.4024868E+01   0.3000000E+00
   0.1492683E+02   0.9761905E+00   0.9275954E-04  -0.4032641E+01   0.9275954E-04  -0.4032641E+01   0.3000000E+00
   0.1492683E+02   0.1952381E+01   0.5547378E-04  -0.4255912E+01   0.5547378E-04  -0.4255912E+01   0.3000000E+00
   0.1492683E+02   0.2928571E+01   0.3125285E-04  -0.4505110E+01   0.3125285E-04  -0.4505110E+01   0.3000000E+00
   0.1492683E+02   0.3904762E+01   0.6221590E-04  -0.4206099E+01   0.6221590E-04  -0.4206099E+01   0.3000000E+00
   0.1492683E+02   0.4880952E+01   0.4561837E-04  -0.4340860E+01   0.4561837E-04  -0.4340860E+01   0.3000000E+00
   0.1492683E+02   0.5857143E+01   0.4886740E-04  -0.4310981E+01   0.4886740E-04  -0.4310981E+01   0.3000000E+00
   0.1492683E+02   0.6833333E+01   0.5436446E-04  -0.4264685E+01   0.5436446E-04  -0.4264685E+01   0.3000000E+00
   0.1492683E+02   0.7809524E+01   0.7626473E-04  -0.4117676E+01   0.7626473E-04  -0.4117676E+01   0.3000000E+00
   0.1492683E+02   0.8785714E+01   0.7467240E-04  -0.4126840E+01   0.7467240E-04  -0.4126840E+01   0.3000000E+00
   0.1492683E+02   0.9761905E+01   0.4685748E-04  -0.4329221E+01   0.4685748E-04  -0.4329221E+01   0.3000000E+00
   0.1492683E+02   0.1073810E+02   0.5180392E-07  -0.7285637E+01   0.5180392E-07  -0.7285637E+01   0.3000000E+00
   0.1492683E+02   0.1171429E+02   0.8602740E-07  -0.7065363E+01   0.8602740E-07  -0.7065363E+01   0.3000000E+00
   0.1492683E+02   0.1269048E+02   0.1340169E-06  -0.6872840E+01   0.1340169E-06  -0.6872840E+01   0.3000000E+00
   0.1492683E+02   0.1366667E+02   0.1568776E-06  -0.6804439E+01   0.1568776E-06  -0.6804439E+01   0.3000000E+00
   0.1492683E+02   0.1464286E+02   0.9012617E-04  -0.4045149E+01   0.9012617E-04  -0.4045149E+01   0.3000000E+00
   0.1492683E+02   0.1561905E+02   0.5149633E-04  -0.4288224E+01   0.5149633E-04  -0.4288224E+01   0.3000000E+00
   0.1492683E+02   0.1659524E+02   0.3745389E-04  -0.4426503E+01   0.3745389E-04  -0.4426503E+01   0.3000000E+00
   0.1492683E+02   0.1757143E+02   0.3271097E-04  -0.4485307E+01   0.3271097E-04  -0.4485307E+01   0.3000000E+00
   0.1492683E+02   0.1854762E+02   0.1625516E-04  -0.4789009E+01   0.1625516E-04  -0.4789009E+01   0.3000000E+00
   0.1492683E+02   0.1952381E+02   0.1323561E-04  -0.4878256E+01   0.1323561E-04  -0.4878256E+01   0.3000000E+00
   0.1492683E+02   0.2050000E+02   0.1323561E-04  -0.4878256E+01   0.1323561E-04  -0.4878256E+01   0.3000000E+00
   0.1741463E+02   0.0000000E+00   0.5026508E-04  -0.4298734E+01   0.5026508E-04  -0.4298734E+01   0.3000000E+00
   0.1741463E+02   0.9761905E+00   0.6490408E-04  -0.4187728E+01   0.6490408E-04  -0.4187728E+01   0.3000000E+00
   0.1741463E+02   0.1952381E+01   0.4863340E-04  -0.4313065E+01   0.4863340E-04  -0.4313065E+01   0.3000000E+00
   0.1741463E+02   0.2928571E+01   0.3752137E-04  -0.4425721E+01   0.3752137E-04  -0.4425721E+01   0.3000000E+00
   0.1741463E+02   0.3904762E+01   0.1196308E-03  -0.3922157E+01   0.1196308E-03  -0.3922157E+01   0.3000000E+00
   0.1741463E+02   0.4880952E+01   0.5828301E-04  -0.4234458E+01   0.5828301E-04  -0.4234458E+01   0.3000000E+00
   0.1741463E+02   0.5857143E+01   0.8518374E-04  -0.4069643E+01   0.8518374E-04  -0.4069643E+01   0.3000000E+00
   0.1741463E+02   0.6833333E+01   0.9234306E-04  -0.4034596E+01   0.9234306E-04  -0.4034596E+01   0.3000000E+00
   0.1741463E+02   0.7809524E+01   0.6362526E-04  -0.4196370E+01   0.6362526E-04  -0.4196370E+01   0.3000000E+00
   0.1741463E+02   0.8785714E+01   0.6778972E-04  -0.4168836E+01   0.6778972E-04  -0.4168836E+01   0.3000000E+00
   0.1741463E+02   0.9761905E+01   0.2571079E-04  -0.4589885E+01   0.2571079E-04  -0.4589885E+01   0.3000000E+00
   0.1741463E+02   0.1073810E+02   0.2049705E-06  -0.6688309E+01   0.2049705E-06  -0.6688309E+01   0.3000000E+00
   0.1741463E+02   0.1171429E+02   0.2103065E-06  -0.6677147E+01   0.2103065E-06  -0.6677147E+01   0.3000000E+00
   0.1741463E+02   0.1269048E+02   0.1010248E-06  -0.6995572E+01   0.1010248E-06  -0.6995572E+01   0.3000000E+00
   0.1741463E+02   0.1366667E+02   0.3075587E-06  -0.6512072E+01   0.3075587E-06  -0.6512072E+01   0.3000000E+00
   0.1741463E+02   0.1464286E+02   0.2721615E-04  -0.4565173E+01   0.2721615E-04  -0.4565173E+01   0.3000000E+00
   0.1741463E+02   0.1561905E+02   0.2787724E-04  -0.4554750E+01   0.2787724E-04  -0.4554750E+01   0.3000000E+00
   0.1741463E+02   0.1659524E+02   0.2084076E-04  -0.4681087E+01   0.2084076E-04  -0.4681087E+01   0.3000000E+00
   0.1741463E+02   0.1757143E+02   0.2457453E-04  -0.4609515E+01   0.2457453E-04  -0.4609515E+01   0.3000000E+00
   0.1741463E+02   0.1854762E+02   0.2418689E-04  -0.4616420E+01   0.2418689E-04  -0.4616420E+01   0.3000000E+00
   0.1741463E+02   0.1952381E+02   0.2306256E-04  -0.4637092E+01   0.2306256E-04  -0.4637092E+01   0.3000000E+00
   0.1741463E+02   0.2050000E+02   0.2306256E-04  -0.4637092E+01   0.2306256E-04  -0.4637092E+01   0.3000000E+00
   0.1990244E+02   0.0000000E+00   0.7582367E-04  -0.4120195E+01   0.7582367E-04  -0.4120195E+01   0.3000000E+00
   0.1990244E+02   0.9761905E+00   0.7749478E-04  -0.4110728E+01   0.7749478E-04  -0.4110728E+01   0.3000000E+00
   0.1990244E+02   0.1952381E+01   0.3494623E-04  -0.4456600E+01   0.3494623E-04  -0.4456600E+01   0.3000000E+00
   0.1990244E+02   0.2928571E+01   0.3455356E-04  -0.4461507E+01   0.3455356E-04  -0.4461507E+01   0.3000000E+00
   0.1990244E+02   0.3904762E+01   0.6179426E-04  -0.4209052E+01   0.6179426E-04  -0.4209052E+01   0.3000000E+00
   0.1990244E+02   0.4880952E+01   0.5438621E-04  -0.4264511E+01   0.5438621E-04  -0.4264511E+01   0.3000000E+00
   0.1990244E+02   0.5857143E+01   0.9423678E-04  -0.4025780E+01   0.9423678E-04  -0.4025780E+01   0.3000000E+00
   0.1990244E+02   0.6833333E+01   0.1730379E-03  -0.3761859E+01   0.1730379E-03  -0.3761859E+01   0.3000000E+00
   0.1990244E+02   0.7809524E+01   0.1429236E-03  -0.3844896E+01   0.1429236E-03  -0.3844896E+01   0.3000000E+00
   0.1990244E+02   0.8785714E+01   0.1690189E-03  -0.3772065E+01   0.1690189E-03  -0.3772065E+01   0.3000000E+00
   0.1990244E+02   0.9761905E+01   0.6351719E-04  -0.4197109E+01   0.6351719E-04  -0.4197109E+01   0.3000000E+00
   0.1990244E+02   0.1073810E+02   0.1722877E-06  -0.6763746E+01   0.1722877E-06  -0.6763746E+01   0.3000000E+00
   0.1990244E+02   0.1171429E+02   0.1671791E-06  -0.6776818E+01   0.1671791E-06  -0.6776818E+01   0.3000000E+00
   0.1990244E+02   0.1269048E+02   0.1398494E-06  -0.6854340E+01   0.1398494E-06  -0.6854340E+01   0.3000000E+00
   0.1990244E+02   0.1366667E+02   0.1974659E-06  -0.6704508E+01   0.1974659E-06  -0.6704508E+01   0.3000000E+00
   0.1990244E+02   0.1464286E+02   0.1807104E-04  -0.4743017E+01   0.1807104E-04  -0.4743017E+01   0.3000000E+00
   0.1990244E+02   0.1561905E+02   0.2180873E-04  -0.4661370E+01   0.2180873E-04  -0.4661370E+01   0.3000000E+00
   0.1990244E+02   0.1659524E+02   0.2963365E-04  -0.4528215E+01   0.2963365E-04  -0.4528215E+01   0.3000000E+00
   0.1990244E+02   0.1757143E+02   0.3973016E-04  -0.4400880E+01   0.3973016E-04  -0.4400880E+01   0.3000000E+00
   0.1990244E+02   0.1854762E+02   0.2455979E-04  -0.4609775E+01   0.2455979E-04  -0.4609775E+01   0.3000000E+00
   0.1990244E+02   0.1952381E+02   0.2652561E-04  -0.4576335E+01   0.2652561E-04  -0.4576335E+01   0.3000000E+00
   0.1990244E+02   0.2050000E+02   0.2652561E-04  -0.4576335E+01   0.2652561E-04  -0.4576335E+01   0.3000000E+00
   0.2239024E+02   0.0000000E+00   0.6284746E-04  -0.4201712E+01   0.6284746E-04  -0.4201712E+01   0.3000000E+00
   0.2239024E+02   0.9761905E+00   0.5002438E-04  -0.4300818E+01   0.5002438E-04  -0.4300818E+01   0.3000000E+00
   0.2239024E+02   0.1952381E+01   0.3086153E-04  -0.4510582E+01   0.3086153E-04  -0.4510582E+01   0.3000000E+00
   0.2239024E+02   0.2928571E+01   0.5570169E-04  -0.4254132E+01   0.5570169E-04  -0.4254132E+01   0.3000000E+00
   0.2239024E+02   0.3904762E+01   0.1762513E-03  -0.3753868E+01   0.1762513E-03  -0.3753868E+01   0.3000000E+00
   0.2239024E+02   0.4880952E+01   0.9546986E-04  -0.4020134E+01   0.9546986E-04  -0.4020134E+01   0.3000000E+00
   0.2239024E+02   0.5857143E+01   0.1340229E-03  -0.3872821E+01   0.1340229E-03  -0.3872821E+01   0.3000000E+00
   0.2239024E+02   0.6833333E+01   0.2313682E-03  -0.3635696E+01   0.2313682E-03  -0.3635696E+01   0.3000000E+00
   0.2239024E+02   0.7809524E+01   0.2823114E-03  -0.3549272E+01   0.2823114E-03  -0.3549272E+01   0.3000000E+00
   0.2239024E+02   0.8785714E+01   0.2231871E-03  -0.3651331E+01   0.2231871E-03  -0.3651331E+01   0.3000000E+00
   0.2239024E+02   0.9761905E+01   0.1228926E-03  -0.3910474E+01   0.1228926E-03  -0.3910474E+01   0.3000000E+00
   0.2239024E+02   0.1073810E+02   0.2638988E-06  -0.6578563E+01   0.2638988E-06  -0.6578563E+01   0.3000000E+00
   0.2239024E+02   0.1171429E+02   0.6928862E-06  -0.6159338E+01   0.6928862E-06  -0.6159338E+01   0.3000000E+00
   0.2239024E+02   0.1269048E+02   0.9260710E-07  -0.7033356E+01   0.9260710E-07  -0.7033356E+01   0.3000000E+00
   0.2239024E+02   0.1366667E+02   0.1733245E-06  -0.6761140E+01   0.1733245E-06  -0.6761140E+01   0.3000000E+00
   0.2239024E+02   0.1464286E+02   0.1532385E-04  -0.4814632E+01   0.1532385E-04  -0.4814632E+01   0.3000000E+00
   0.2239024E+02   0.1561905E+02   0.2223818E-04  -0.4652901E+01   0.2223818E-04  -0.4652901E+01   0.3000000E+00
   0.2239024E+02   0.1659524E+02   0.1685775E-04  -0.4773200E+01   0.1685775E-04  -0.4773200E+01   0.3000000E+00
   0.2239024E+02   0.1757143E+02   0.2084284E-04  -0.4681043E+01   0.2084284E-04  -0.4681043E+01   0.3000000E+00
   0.2239024E+02   0.1854762E+02   0.2110290E-04  -0.4675658E+01   0.2110290E-04  -0.4675658E+01   0.3000000E+00
   0.2239024E+02   0.1952381E+02   0.3450177E-04  -0.4462159E+01   0.3450177E-04  -0.4462159E+01   0.3000000E+00
   0.2239024E+02   0.2050000E+02   0.3450177E-04  -0.4462159E+01   0.3450177E-04  -0.4462159E+01   0.3000000E+00
   0.2487805E+02   0.0000000E+00   0.1584907E-04  -0.4799996E+01   0.1584907E-04  -0.4799996E+01   0.3000000E+00
   0.2487805E+02   0.9761905E+00   0.2350259E-04  -0.4628884E+01   0.2350259E-04  -0.4628884E+01   0.3000000E+00
   0.2487805E+02   0.1952381E+01   0.3498469E-04  -0.4456122E+01   0.3498469E-04  -0.4456122E+01   0.3000000E+00
   0.2487805E+02   0.2928571E+01   0.5706612E-04  -0.4243622E+01   0.5706612E-04  -0.4243622E+01   0.3000000E+00
   0.2487805E+02   0.3904762E+01   0.4813505E-04  -0.4317539E+01   0.4813505E-04  -0.4317539E+01   0.3000000E+00
   0.2487805E+02   0.4880952E+01   0.9023438E-04  -0.4044628E+01   0.9023438E-04  -0.4044628E+01   0.3000000E+00
   0.2487805E+02   0.5857143E+01   0.1452433E-03  -0.3837904E+01   0.1452433E-03  -0.3837904E+01   0.3000000E+00
   0.2487805E+02   0.6833333E+01   0.2298003E-03  -0.3638649E+01   0.2298003E-03  -0.3638649E+01   0.3000000E+00
   0.2487805E+02   0.7809524E+01   0.2855481E-03  -0.3544321E+01   0.2855481E-03  -0.3544321E+01   0.3000000E+00
   0.2487805E+02   0.8785714E+01   0.2612847E-03  -0.3582886E+01   0.2612847E-03  -0.3582886E+01   0.3000000E+00
   0.2487805E+02   0.9761905E+01   0.1247499E-03  -0.3903960E+01   0.1247499E-03  -0.3903960E+01   0.3000000E+00
   0.2487805E+02   0.1073810E+02   0.3133955E-06  -0.6503907E+01   0.3133955E-06  -0.6503907E+01   0.3000000E+00
   0.2487805E+02   0.1171429E+02   0.5325442E-06  -0.6273644E+01   0.5325442E-06  -0.6273644E+01   0.3000000E+00
   0.2487805E+02   0.1269048E+02   0.5808926E-06  -0.6235904E+01   0.5808926E-06  -0.6235904E+01   0.3000000E+00
   0.2487805E+02   0.1366667E+02   0.6406293E-07  -0.7193393E+01   0.6406293E-07  -0.7193393E+01   0.3000000E+00
   0.2487805E+02   0.1464286E+02   0.1078559E-04  -0.4967156E+01   0.1078559E-04  -0.4967156E+01   0.3000000E+00
   0.2487805E+02   0.1561905E+02   0.2556976E-04  -0.4592273E+01   0.2556976E-04  -0.4592273E+01   0.3000000E+00
   0.2487805E+02   0.1659524E+02   0.1330328E-04  -0.4876041E+01   0.1330328E-04  -0.4876041E+01   0.3000000E+00
   0.2487805E+02   0.1757143E+02   0.3938994E-04  -0.4404615E+01   0.3938994E-04  -0.4404615E+01   0.3000000E+00
   0.2487805E+02   0.1854762E+02   0.1975113E-04  -0.4704408E+01   0.1975113E-04  -0.4704408E+01   0.3000000E+00
   0.2487805E+02   0.1952381E+02   0.3311580E-04  -0.4479965E+01   0.3311580E-04  -0.4479965E+01   0.3000000E+00
   0.2487805E+02   0.2050000E+02   0.3311580E-04  -0.4479965E+01   0.3311580E-04  -0.4479965E+01   0.3000000E+00
   0.2736585E+02   0.0000000E+00   0.6897855E-05  -0.5161286E+01   0.6897855E-05  -0.5161286E+01   0.3000000E+00
   0.2736585E+02   0.9761905E+00   0.1495298E-04  -0.4825272E+01   0.1495298E-04  -0.4825272E+01   0.3000000E+00
   0.2736585E+02   0.1952381E+01   0.1231860E-04  -0.4909439E+01   0.1231860E-04  -0.4909439E+01   0.3000000E+00
   0.2736585E+02   0.2928571E+01   0.2585517E-04  -0.4587453E+01   0.2585517E-04  -0.4587453E+01   0.3000000E+00
   0.2736585E+02   0.3904762E+01   0.7825014E-04  -0.4106515E+01   0.7825014E-04  -0.4106515E+01   0.3000000E+00
   0.2736585E+02   0.4880952E+01   0.9678679E-04  -0.4014184E+01   0.9678679E-04  -0.4014184E+01   0.3000000E+00
   0.2736585E+02   0.5857143E+01   0.1904921E-03  -0.3720123E+01   0.1904921E-03  -0.3720123E+01   0.3000000E+00
   0.2736585E+02   0.6833333E+01   0.1497864E-03  -0.3824527E+01   0.1497864E-03  -0.3824527E+01   0.3000000E+00
   0.2736585E+02   0.7809524E+01   0.1288451E-03  -0.3889932E+01   0.1288451E-03  -0.3889932E+01   0.3000000E+00
   0.2736585E+02   0.8785714E+01   0.1257141E-03  -0.3900616E+01   0.1257141E-03  -0.3900616E+01   0.3000000E+00
   0.2736585E+02   0.9761905E+01   0.1136713E-03  -0.3944349E+01   0.1136713E-03  -0.3944349E+01   0.3000000E+00
   0.2736585E+02   0.1073810E+02   0.6643778E-07  -0.7177585E+01   0.6643778E-07  -0.7177585E+01   0.3000000E+00
   0.2736585E+02   0.1171429E+02   0.1384717E-06  -0.6858639E+01   0.1384717E-06  -0.6858639E+01   0.3000000E+00
   0.2736585E+02   0.1269048E+02   0.1404239E-06  -0.6852559E+01   0.1404239E-06  -0.6852559E+01   0.3000000E+00
   0.2736585E+02   0.1366667E+02   0.8557266E-07  -0.7067665E+01   0.8557266E-07  -0.7067665E+01   0.3000000E+00
   0.2736585E+02   0.1464286E+02   0.1478053E-04  -0.4830310E+01   0.1478053E-04  -0.4830310E+01   0.3000000E+00
   0.2736585E+02   0.1561905E+02   0.1697787E-04  -0.4770117E+01   0.1697787E-04  -0.4770117E+01   0.3000000E+00
   0.2736585E+02   0.1659524E+02   0.2731157E-04  -0.4563653E+01   0.2731157E-04  -0.4563653E+01   0.3000000E+00
   0.2736585E+02   0.1757143E+02   0.2272829E-04  -0.4643433E+01   0.2272829E-04  -0.4643433E+01   0.3000000E+00
   0.2736585E+02   0.1854762E+02   0.2195315E-04  -0.4658503E+01   0.2195315E-04  -0.4658503E+01   0.3000000E+00
   0.2736585E+02   0.1952381E+02   0.2067676E-04  -0.4684517E+01   0.2067676E-04  -0.4684517E+01   0.3000000E+00
   0.2736585E+02   0.2050000E+02   0.2067676E-04  -0.4684517E+01   0.2067676E-04  -0.4684517E+01   0.3000000E+00