title="2d vectors xy, t=    0.150E+03"
variables="x","y","vx","vy"
zone i=    41, j=    41, T="   0.150E+03"
  0.124390E+01  0.124390E+01  0.101651E-05 -0.365695E-07
  0.124390E+01  0.373171E+01  0.126221E-05 -0.299816E-07
  0.124390E+01  0.621951E+01  0.128119E-05  0.213060E-07
  0.124390E+01  0.870732E+01  0.510052E-06 -0.617247E-08
  0.124390E+01  0.111951E+02  0.386123E-06  0.293105E-08
  0.124390E+01  0.136829E+02  0.319830E-06  0.257889E-07
  0.124390E+01  0.161707E+02  0.163983E-06  0.621309E-08
  0.124390E+01  0.186585E+02  0.285462E-06 -0.319804E-08
  0.124390E+01  0.211463E+02  0.347915E-06  0.360486E-08
  0.124390E+01  0.236341E+02  0.182657E-06 -0.362621E-08
  0.124390E+01  0.261220E+02  0.209234E-06 -0.864851E-08
  0.124390E+01  0.286098E+02  0.167072E-06 -0.213753E-08
  0.124390E+01  0.310976E+02  0.278948E-06  0.142070E-07
  0.124390E+01  0.335854E+02  0.279026E-06  0.113708E-07
  0.124390E+01  0.360732E+02  0.151344E-06 -0.911716E-08
  0.124390E+01  0.385610E+02  0.274173E-06  0.265746E-08
  0.124390E+01  0.410488E+02  0.578843E-06  0.178510E-07
  0.124390E+01  0.435366E+02  0.222366E-06  0.197468E-08
  0.124390E+01  0.460244E+02  0.166147E-06  0.573180E-08
  0.124390E+01  0.485122E+02  0.229613E-06  0.975347E-08
  0.124390E+01  0.510000E+02  0.347728E-06 -0.990120E-08
  0.124390E+01  0.534878E+02  0.714145E-06 -0.239941E-07
  0.124390E+01  0.559756E+02  0.653485E-06 -0.433238E-07
  0.124390E+01  0.584634E+02  0.388680E-06 -0.670146E-07
  0.124390E+01  0.609512E+02  0.394482E-06 -0.940528E-07
  0.124390E+01  0.634390E+02  0.109171E-05 -0.206238E-07
  0.124390E+01  0.659268E+02  0.747341E-06  0.572939E-08
  0.124390E+01  0.684146E+02  0.114404E-05  0.441030E-08
  0.124390E+01  0.709024E+02  0.276841E-06  0.334012E-07
  0.124390E+01  0.733902E+02  0.562446E-06  0.997121E-07
  0.124390E+01  0.758780E+02  0.202393E-06  0.504047E-07
  0.124390E+01  0.783659E+02  0.247044E-06  0.212797E-07
  0.124390E+01  0.808537E+02  0.386008E-06 -0.136657E-08
  0.124390E+01  0.833415E+02  0.475696E-06 -0.855996E-08
  0.124390E+01  0.858293E+02  0.366139E-06 -0.642882E-08
  0.124390E+01  0.883171E+02  0.394902E-06 -0.456807E-07
  0.124390E+01  0.908049E+02  0.600199E-06 -0.500839E-07
  0.124390E+01  0.932927E+02  0.148173E-05 -0.574819E-07
  0.124390E+01  0.957805E+02  0.331739E-05  0.356925E-06
  0.124390E+01  0.982683E+02  0.989762E-06  0.151592E-06
  0.124390E+01  0.100756E+03  0.179176E-06  0.116728E-06
  0.373171E+01  0.124390E+01  0.687493E-06 -0.253753E-07
  0.373171E+01  0.373171E+01  0.510099E-06  0.302614E-07
  0.373171E+01  0.621951E+01  0.464855E-06  0.213095E-07
  0.373171E+01  0.870732E+01  0.401677E-06 -0.209180E-07
  0.373171E+01  0.111951E+02  0.367627E-06 -0.155343E-08
  0.373171E+01  0.136829E+02  0.372694E-06  0.659026E-07
  0.373171E+01  0.161707E+02  0.427770E-06  0.646196E-07
  0.373171E+01  0.186585E+02  0.379349E-06  0.184691E-07
  0.373171E+01  0.211463E+02  0.138728E-06  0.465486E-08
  0.373171E+01  0.236341E+02  0.151100E-06 -0.109192E-07
  0.373171E+01  0.261220E+02  0.125684E-06 -0.137007E-07
  0.373171E+01  0.286098E+02  0.117259E-06 -0.151815E-07
  0.373171E+01  0.310976E+02  0.177183E-06  0.132626E-07
  0.373171E+01  0.335854E+02  0.325316E-06  0.494758E-07
  0.373171E+01  0.360732E+02  0.213666E-06  0.107407E-07
  0.373171E+01  0.385610E+02  0.150102E-06 -0.939747E-08
  0.373171E+01  0.410488E+02  0.543164E-06 -0.540691E-08
  0.373171E+01  0.435366E+02  0.205899E-06  0.269224E-07
  0.373171E+01  0.460244E+02  0.909247E-07  0.131161E-07
  0.373171E+01  0.485122E+02  0.126152E-06  0.404028E-08
  0.373171E+01  0.510000E+02  0.240985E-06 -0.323876E-07
  0.373171E+01  0.534878E+02  0.304324E-06 -0.523378E-07
  0.373171E+01  0.559756E+02  0.479727E-06 -0.933505E-07
  0.373171E+01  0.584634E+02  0.304785E-06 -0.120659E-06
  0.373171E+01  0.609512E+02  0.417585E-06 -0.157912E-06
  0.373171E+01  0.634390E+02  0.349399E-06 -0.115273E-06
  0.373171E+01  0.659268E+02  0.939447E-06 -0.731070E-07
  0.373171E+01  0.684146E+02  0.793937E-06  0.818274E-07
  0.373171E+01  0.709024E+02  0.530508E-06  0.238474E-06
  0.373171E+01  0.733902E+02  0.401788E-06  0.234000E-06
  0.373171E+01  0.758780E+02  0.475607E-06  0.205024E-06
  0.373171E+01  0.783659E+02  0.238195E-06  0.606757E-07
  0.373171E+01  0.808537E+02  0.411426E-06  0.166295E-07
  0.373171E+01  0.833415E+02  0.299988E-06 -0.157346E-07
  0.373171E+01  0.858293E+02  0.316467E-06 -0.518005E-07
  0.373171E+01  0.883171E+02  0.325414E-06 -0.856113E-07
  0.373171E+01  0.908049E+02  0.505576E-06 -0.810014E-07
  0.373171E+01  0.932927E+02  0.175033E-05  0.748012E-07
  0.373171E+01  0.957805E+02  0.171187E-05  0.201581E-06
  0.373171E+01  0.982683E+02  0.226943E-05  0.441572E-06
  0.373171E+01  0.100756E+03  0.407206E-06  0.817480E-07
  0.621951E+01  0.124390E+01  0.541138E-06  0.367577E-07
  0.621951E+01  0.373171E+01  0.285194E-06  0.243695E-07
  0.621951E+01  0.621951E+01  0.517373E-06  0.222665E-07
  0.621951E+01  0.870732E+01  0.390121E-06  0.412128E-07
  0.621951E+01  0.111951E+02  0.589676E-06  0.246886E-07
  0.621951E+01  0.136829E+02  0.443022E-06  0.139947E-07
  0.621951E+01  0.161707E+02  0.405829E-06  0.466806E-07
  0.621951E+01  0.186585E+02  0.202319E-06  0.166658E-07
  0.621951E+01  0.211463E+02  0.314029E-06  0.204129E-08
  0.621951E+01  0.236341E+02  0.119090E-06 -0.104682E-07
  0.621951E+01  0.261220E+02  0.174632E-06 -0.327627E-07
  0.621951E+01  0.286098E+02  0.575984E-07 -0.127080E-07
  0.621951E+01  0.310976E+02  0.779121E-07 -0.565291E-09
  0.621951E+01  0.335854E+02  0.935370E-07  0.124285E-07
  0.621951E+01  0.360732E+02  0.211855E-06  0.337866E-07
  0.621951E+01  0.385610E+02  0.261182E-06 -0.248266E-07
  0.621951E+01  0.410488E+02  0.205125E-06 -0.746645E-08
  0.621951E+01  0.435366E+02  0.168660E-06  0.277868E-07
  0.621951E+01  0.460244E+02  0.135087E-06  0.239595E-07
  0.621951E+01  0.485122E+02  0.102377E-06 -0.381971E-08
  0.621951E+01  0.510000E+02  0.902517E-07 -0.131698E-07
  0.621951E+01  0.534878E+02  0.187302E-06 -0.580887E-07
  0.621951E+01  0.559756E+02  0.368094E-06 -0.130790E-06
  0.621951E+01  0.584634E+02  0.282240E-06 -0.123007E-06
  0.621951E+01  0.609512E+02  0.258834E-06 -0.120467E-06
  0.621951E+01  0.634390E+02  0.318520E-06 -0.137542E-06
  0.621951E+01  0.659268E+02  0.424665E-06 -0.717904E-07
  0.621951E+01  0.684146E+02  0.733219E-06  0.102536E-06
  0.621951E+01  0.709024E+02  0.242037E-06  0.139263E-06
  0.621951E+01  0.733902E+02  0.423127E-06  0.345684E-06
  0.621951E+01  0.758780E+02  0.745955E-06  0.398002E-06
  0.621951E+01  0.783659E+02  0.427925E-06  0.137197E-06
  0.621951E+01  0.808537E+02  0.481631E-06  0.119459E-07
  0.621951E+01  0.833415E+02  0.438504E-06 -0.546502E-07
  0.621951E+01  0.858293E+02  0.205623E-06 -0.312119E-07
  0.621951E+01  0.883171E+02  0.223486E-06 -0.299412E-07
  0.621951E+01  0.908049E+02  0.372886E-06 -0.323086E-07
  0.621951E+01  0.932927E+02  0.590083E-06 -0.894726E-08
  0.621951E+01  0.957805E+02  0.157159E-05  0.194334E-07
  0.621951E+01  0.982683E+02  0.170215E-05  0.643584E-07
  0.621951E+01  0.100756E+03  0.505473E-06  0.681641E-07
  0.870732E+01  0.124390E+01  0.513052E-06  0.175902E-07
  0.870732E+01  0.373171E+01  0.496354E-06  0.122612E-08
  0.870732E+01  0.621951E+01  0.448280E-06  0.494500E-07
  0.870732E+01  0.870732E+01  0.413861E-06  0.100109E-06
  0.870732E+01  0.111951E+02  0.505482E-06  0.496498E-07
  0.870732E+01  0.136829E+02  0.350376E-06 -0.122132E-07
  0.870732E+01  0.161707E+02  0.245547E-06 -0.265759E-08
  0.870732E+01  0.186585E+02  0.236933E-06 -0.752749E-08
  0.870732E+01  0.211463E+02  0.145734E-06 -0.108601E-07
  0.870732E+01  0.236341E+02  0.164575E-06 -0.134252E-07
  0.870732E+01  0.261220E+02  0.128794E-06 -0.194483E-07
  0.870732E+01  0.286098E+02  0.883665E-07 -0.158664E-07
  0.870732E+01  0.310976E+02  0.642606E-07 -0.978439E-08
  0.870732E+01  0.335854E+02  0.557370E-07  0.126989E-08
  0.870732E+01  0.360732E+02  0.154492E-06  0.829304E-08
  0.870732E+01  0.385610E+02  0.224108E-06  0.416132E-08
  0.870732E+01  0.410488E+02  0.150342E-06  0.276523E-08
  0.870732E+01  0.435366E+02  0.196143E-06  0.112819E-07
  0.870732E+01  0.460244E+02  0.179745E-06 -0.227028E-08
  0.870732E+01  0.485122E+02  0.100095E-06 -0.759330E-08
  0.870732E+01  0.510000E+02  0.192207E-06 -0.229414E-07
  0.870732E+01  0.534878E+02  0.148460E-06 -0.472087E-07
  0.870732E+01  0.559756E+02  0.200854E-06 -0.960158E-07
  0.870732E+01  0.584634E+02  0.467781E-06 -0.235847E-06
  0.870732E+01  0.609512E+02  0.321759E-06 -0.187061E-06
  0.870732E+01  0.634390E+02  0.332213E-06 -0.145135E-06
  0.870732E+01  0.659268E+02  0.333450E-06 -0.762691E-07
  0.870732E+01  0.684146E+02  0.363745E-06  0.961385E-07
  0.870732E+01  0.709024E+02  0.263424E-06  0.220787E-06
  0.870732E+01  0.733902E+02  0.252624E-06  0.260583E-06
  0.870732E+01  0.758780E+02  0.661464E-06  0.464225E-06
  0.870732E+01  0.783659E+02  0.989974E-06  0.336379E-06
  0.870732E+01  0.808537E+02  0.615967E-06  0.352595E-07
  0.870732E+01  0.833415E+02  0.231403E-06  0.141081E-07
  0.870732E+01  0.858293E+02  0.278268E-06  0.328893E-07
  0.870732E+01  0.883171E+02  0.302337E-06 -0.100495E-07
  0.870732E+01  0.908049E+02  0.303016E-06 -0.536546E-07
  0.870732E+01  0.932927E+02  0.607393E-06 -0.144678E-06
  0.870732E+01  0.957805E+02  0.109725E-05 -0.157619E-06
  0.870732E+01  0.982683E+02  0.117786E-05  0.128347E-06
  0.870732E+01  0.100756E+03  0.607719E-06  0.115260E-06
  0.111951E+02  0.124390E+01  0.724616E-06 -0.220136E-07
  0.111951E+02  0.373171E+01  0.555926E-06  0.172128E-07
  0.111951E+02  0.621951E+01  0.307774E-06  0.580281E-07
  0.111951E+02  0.870732E+01  0.668037E-06  0.129152E-06
  0.111951E+02  0.111951E+02  0.360813E-06  0.290952E-07
  0.111951E+02  0.136829E+02  0.289139E-06  0.161377E-07
  0.111951E+02  0.161707E+02  0.244827E-06 -0.228771E-07
  0.111951E+02  0.186585E+02  0.174551E-06 -0.358696E-07
  0.111951E+02  0.211463E+02  0.176012E-06 -0.286380E-07
  0.111951E+02  0.236341E+02  0.109137E-06 -0.106591E-07
  0.111951E+02  0.261220E+02  0.120669E-06 -0.483311E-08
  0.111951E+02  0.286098E+02  0.692803E-07 -0.105875E-07
  0.111951E+02  0.310976E+02  0.645224E-07 -0.207209E-07
  0.111951E+02  0.335854E+02  0.504786E-07 -0.876709E-08
  0.111951E+02  0.360732E+02  0.101178E-06 -0.116143E-08
  0.111951E+02  0.385610E+02  0.266249E-06  0.237033E-07
  0.111951E+02  0.410488E+02  0.168664E-06  0.106414E-07
  0.111951E+02  0.435366E+02  0.203201E-06 -0.127606E-07
  0.111951E+02  0.460244E+02  0.202923E-06 -0.288005E-07
  0.111951E+02  0.485122E+02  0.169698E-06 -0.338973E-07
  0.111951E+02  0.510000E+02  0.806163E-07 -0.157639E-07
  0.111951E+02  0.534878E+02  0.181357E-06 -0.211991E-07
  0.111951E+02  0.559756E+02  0.367312E-06 -0.113305E-06
  0.111951E+02  0.584634E+02  0.309150E-06 -0.143231E-06
  0.111951E+02  0.609512E+02  0.344023E-06 -0.192478E-06
  0.111951E+02  0.634390E+02  0.279850E-06 -0.937277E-07
  0.111951E+02  0.659268E+02  0.260110E-06  0.394072E-08
  0.111951E+02  0.684146E+02  0.138015E-06  0.561992E-07
  0.111951E+02  0.709024E+02  0.204582E-06  0.116244E-06
  0.111951E+02  0.733902E+02  0.187437E-06  0.136115E-06
  0.111951E+02  0.758780E+02  0.440262E-06  0.331369E-06
  0.111951E+02  0.783659E+02  0.134729E-05  0.539638E-06
  0.111951E+02  0.808537E+02  0.781487E-06  0.293258E-06
  0.111951E+02  0.833415E+02  0.319634E-06  0.102605E-06
  0.111951E+02  0.858293E+02  0.231310E-06  0.276927E-07
  0.111951E+02  0.883171E+02  0.805588E-06 -0.907678E-07
  0.111951E+02  0.908049E+02  0.437493E-06 -0.147871E-06
  0.111951E+02  0.932927E+02  0.650136E-06 -0.156414E-06
  0.111951E+02  0.957805E+02  0.732686E-06 -0.950913E-07
  0.111951E+02  0.982683E+02  0.568048E-06 -0.147017E-08
  0.111951E+02  0.100756E+03  0.631328E-06  0.565463E-07
  0.136829E+02  0.124390E+01  0.816952E-06  0.115493E-07
  0.136829E+02  0.373171E+01  0.414482E-06  0.298151E-07
  0.136829E+02  0.621951E+01  0.434244E-06  0.411474E-07
  0.136829E+02  0.870732E+01  0.672876E-06  0.287680E-07
  0.136829E+02  0.111951E+02  0.635135E-06  0.358396E-07
  0.136829E+02  0.136829E+02  0.153688E-06  0.859440E-08
  0.136829E+02  0.161707E+02  0.265624E-06 -0.497231E-07
  0.136829E+02  0.186585E+02  0.241470E-06 -0.111346E-06
  0.136829E+02  0.211463E+02  0.142955E-06 -0.411760E-07
  0.136829E+02  0.236341E+02  0.168019E-06 -0.841358E-08
  0.136829E+02  0.261220E+02  0.873741E-07 -0.271472E-08
  0.136829E+02  0.286098E+02  0.167943E-06 -0.894275E-08
  0.136829E+02  0.310976E+02  0.580487E-07 -0.102794E-07
  0.136829E+02  0.335854E+02  0.597613E-07 -0.134167E-07
  0.136829E+02  0.360732E+02  0.994482E-07 -0.131571E-08
  0.136829E+02  0.385610E+02  0.197965E-06  0.142077E-07
  0.136829E+02  0.410488E+02  0.397607E-06 -0.765735E-08
  0.136829E+02  0.435366E+02  0.393704E-06 -0.543346E-07
  0.136829E+02  0.460244E+02  0.200665E-06 -0.334416E-07
  0.136829E+02  0.485122E+02  0.161977E-06 -0.379481E-07
  0.136829E+02  0.510000E+02  0.185369E-06 -0.249415E-07
  0.136829E+02  0.534878E+02  0.255048E-06 -0.592840E-07
  0.136829E+02  0.559756E+02  0.296313E-06 -0.397329E-07
  0.136829E+02  0.584634E+02  0.365377E-06 -0.820376E-07
  0.136829E+02  0.609512E+02  0.262875E-06 -0.654876E-07
  0.136829E+02  0.634390E+02  0.159042E-06 -0.196407E-07
  0.136829E+02  0.659268E+02  0.247116E-06  0.230316E-07
  0.136829E+02  0.684146E+02  0.991491E-07  0.552021E-07
  0.136829E+02  0.709024E+02  0.223828E-06  0.635996E-07
  0.136829E+02  0.733902E+02  0.278449E-06  0.943951E-07
  0.136829E+02  0.758780E+02  0.295192E-06  0.130701E-06
  0.136829E+02  0.783659E+02  0.939071E-06  0.260592E-06
  0.136829E+02  0.808537E+02  0.102227E-05  0.481614E-06
  0.136829E+02  0.833415E+02  0.265843E-06  0.130875E-06
  0.136829E+02  0.858293E+02  0.588145E-06  0.599003E-07
  0.136829E+02  0.883171E+02  0.457103E-06 -0.231524E-07
  0.136829E+02  0.908049E+02  0.414095E-06 -0.715662E-07
  0.136829E+02  0.932927E+02  0.455969E-06 -0.929132E-07
  0.136829E+02  0.957805E+02  0.486567E-06 -0.716525E-07
  0.136829E+02  0.982683E+02  0.302429E-06 -0.848884E-08
  0.136829E+02  0.100756E+03  0.430966E-06 -0.175378E-08
  0.161707E+02  0.124390E+01  0.538747E-06  0.155087E-07
  0.161707E+02  0.373171E+01  0.521232E-06  0.203169E-07
  0.161707E+02  0.621951E+01  0.702763E-06  0.159583E-08
  0.161707E+02  0.870732E+01  0.723384E-06 -0.175684E-08
  0.161707E+02  0.111951E+02  0.328623E-06  0.152434E-07
  0.161707E+02  0.136829E+02  0.258783E-06 -0.202029E-07
  0.161707E+02  0.161707E+02  0.287357E-06 -0.692292E-07
  0.161707E+02  0.186585E+02  0.127991E-06 -0.276575E-07
  0.161707E+02  0.211463E+02  0.969811E-07 -0.138274E-07
  0.161707E+02  0.236341E+02  0.209908E-06 -0.417618E-09
  0.161707E+02  0.261220E+02  0.308823E-06  0.107619E-07
  0.161707E+02  0.286098E+02  0.171482E-06  0.348137E-08
  0.161707E+02  0.310976E+02  0.131968E-06  0.284039E-08
  0.161707E+02  0.335854E+02  0.657460E-07 -0.676966E-09
  0.161707E+02  0.360732E+02  0.859331E-07  0.355663E-08
  0.161707E+02  0.385610E+02  0.208107E-06  0.501162E-08
  0.161707E+02  0.410488E+02  0.417885E-06 -0.235476E-07
  0.161707E+02  0.435366E+02  0.283800E-06 -0.324804E-07
  0.161707E+02  0.460244E+02  0.740779E-06 -0.712782E-07
  0.161707E+02  0.485122E+02  0.255074E-06 -0.744525E-07
  0.161707E+02  0.510000E+02  0.422096E-06 -0.158653E-06
  0.161707E+02  0.534878E+02  0.334980E-06 -0.720405E-07
  0.161707E+02  0.559756E+02  0.268135E-06  0.715564E-08
  0.161707E+02  0.584634E+02  0.366951E-06  0.340954E-07
  0.161707E+02  0.609512E+02  0.122058E-06  0.195434E-07
  0.161707E+02  0.634390E+02  0.115466E-06  0.662113E-08
  0.161707E+02  0.659268E+02  0.838655E-07  0.196158E-07
  0.161707E+02  0.684146E+02  0.897502E-07  0.339234E-07
  0.161707E+02  0.709024E+02  0.223943E-06  0.314506E-07
  0.161707E+02  0.733902E+02  0.152851E-06  0.291784E-07
  0.161707E+02  0.758780E+02  0.266659E-06  0.315570E-07
  0.161707E+02  0.783659E+02  0.767334E-06  0.914893E-07
  0.161707E+02  0.808537E+02  0.644480E-06  0.198758E-06
  0.161707E+02  0.833415E+02  0.571904E-06  0.214888E-06
  0.161707E+02  0.858293E+02  0.348413E-06  0.742398E-07
  0.161707E+02  0.883171E+02  0.623038E-06  0.360611E-08
  0.161707E+02  0.908049E+02  0.215973E-06 -0.480799E-07
  0.161707E+02  0.932927E+02  0.460845E-06 -0.142235E-06
  0.161707E+02  0.957805E+02  0.335272E-06 -0.660183E-07
  0.161707E+02  0.982683E+02  0.220570E-06 -0.102214E-08
  0.161707E+02  0.100756E+03  0.155727E-06 -0.680975E-08
  0.186585E+02  0.124390E+01  0.354062E-06 -0.192894E-07
  0.186585E+02  0.373171E+01  0.592249E-06 -0.572540E-07
  0.186585E+02  0.621951E+01  0.721304E-06 -0.443911E-07
  0.186585E+02  0.870732E+01  0.441027E-06 -0.206339E-08
  0.186585E+02  0.111951E+02  0.329565E-06 -0.808324E-08
  0.186585E+02  0.136829E+02  0.394284E-06 -0.629762E-07
  0.186585E+02  0.161707E+02  0.217322E-06 -0.370523E-07
  0.186585E+02  0.186585E+02  0.841272E-07 -0.106764E-07
  0.186585E+02  0.211463E+02  0.119789E-06 -0.135040E-07
  0.186585E+02  0.236341E+02  0.194619E-06  0.119457E-07
  0.186585E+02  0.261220E+02  0.491622E-06  0.130487E-07
  0.186585E+02  0.286098E+02  0.340637E-06  0.194951E-07
  0.186585E+02  0.310976E+02  0.226596E-06  0.497692E-07
  0.186585E+02  0.335854E+02  0.100937E-06  0.176172E-07
  0.186585E+02  0.360732E+02  0.114462E-06 -0.166587E-08
  0.186585E+02  0.385610E+02  0.319442E-06 -0.124495E-07
  0.186585E+02  0.410488E+02  0.625649E-06 -0.263526E-07
  0.186585E+02  0.435366E+02  0.681403E-06 -0.106558E-06
  0.186585E+02  0.460244E+02  0.869059E-06 -0.143883E-06
  0.186585E+02  0.485122E+02  0.723733E-06 -0.254513E-06
  0.186585E+02  0.510000E+02  0.280562E-06 -0.822705E-07
  0.186585E+02  0.534878E+02  0.219938E-06 -0.189732E-07
  0.186585E+02  0.559756E+02  0.280042E-06  0.412709E-08
  0.186585E+02  0.584634E+02  0.304562E-06  0.485526E-07
  0.186585E+02  0.609512E+02  0.155408E-06  0.692667E-07
  0.186585E+02  0.634390E+02  0.904565E-07  0.349293E-07
  0.186585E+02  0.659268E+02  0.394719E-07  0.206304E-07
  0.186585E+02  0.684146E+02  0.972041E-07  0.187676E-07
  0.186585E+02  0.709024E+02  0.150090E-06  0.260161E-07
  0.186585E+02  0.733902E+02  0.113493E-06  0.119698E-07
  0.186585E+02  0.758780E+02  0.240940E-06 -0.305009E-07
  0.186585E+02  0.783659E+02  0.380919E-06 -0.674691E-08
  0.186585E+02  0.808537E+02  0.464738E-06  0.389689E-07
  0.186585E+02  0.833415E+02  0.532260E-06  0.727862E-07
  0.186585E+02  0.858293E+02  0.678356E-06  0.549562E-07
  0.186585E+02  0.883171E+02  0.287956E-06 -0.116685E-07
  0.186585E+02  0.908049E+02  0.295903E-06 -0.398438E-07
  0.186585E+02  0.932927E+02  0.271102E-06 -0.571506E-07
  0.186585E+02  0.957805E+02  0.145320E-06 -0.501393E-07
  0.186585E+02  0.982683E+02  0.221709E-06 -0.338498E-07
  0.186585E+02  0.100756E+03  0.919447E-07  0.243468E-09
  0.211463E+02  0.124390E+01  0.393924E-06 -0.549412E-07
  0.211463E+02  0.373171E+01  0.531190E-06 -0.917066E-07
  0.211463E+02  0.621951E+01  0.639509E-06 -0.203831E-07
  0.211463E+02  0.870732E+01  0.349475E-06 -0.264229E-08
  0.211463E+02  0.111951E+02  0.274719E-06 -0.958147E-08
  0.211463E+02  0.136829E+02  0.384887E-06 -0.189087E-07
  0.211463E+02  0.161707E+02  0.146640E-06 -0.254259E-08
  0.211463E+02  0.186585E+02  0.109487E-06  0.297415E-08
  0.211463E+02  0.211463E+02  0.891913E-07 -0.626340E-08
  0.211463E+02  0.236341E+02  0.165233E-06 -0.206807E-08
  0.211463E+02  0.261220E+02  0.722987E-06  0.251806E-07
  0.211463E+02  0.286098E+02  0.536849E-06  0.437648E-07
  0.211463E+02  0.310976E+02  0.294952E-06  0.771940E-07
  0.211463E+02  0.335854E+02  0.357985E-06  0.100333E-06
  0.211463E+02  0.360732E+02  0.260027E-06  0.195018E-08
  0.211463E+02  0.385610E+02  0.292672E-06 -0.338438E-07
  0.211463E+02  0.410488E+02  0.441664E-06 -0.336859E-07
  0.211463E+02  0.435366E+02  0.885337E-06 -0.150561E-06
  0.211463E+02  0.460244E+02  0.996931E-06 -0.184418E-06
  0.211463E+02  0.485122E+02  0.387315E-06 -0.560958E-07
  0.211463E+02  0.510000E+02  0.332162E-06 -0.265178E-07
  0.211463E+02  0.534878E+02  0.205130E-06 -0.314945E-07
  0.211463E+02  0.559756E+02  0.389686E-06  0.212952E-07
  0.211463E+02  0.584634E+02  0.279609E-06  0.779659E-07
  0.211463E+02  0.609512E+02  0.275807E-06  0.861993E-07
  0.211463E+02  0.634390E+02  0.598834E-07  0.249563E-07
  0.211463E+02  0.659268E+02  0.709412E-07  0.274595E-07
  0.211463E+02  0.684146E+02  0.658275E-07  0.130052E-07
  0.211463E+02  0.709024E+02  0.851391E-07  0.140765E-07
  0.211463E+02  0.733902E+02  0.801060E-07 -0.320169E-08
  0.211463E+02  0.758780E+02  0.118152E-06 -0.153394E-07
  0.211463E+02  0.783659E+02  0.330737E-06 -0.376102E-07
  0.211463E+02  0.808537E+02  0.582600E-06 -0.632554E-07
  0.211463E+02  0.833415E+02  0.610699E-06 -0.443969E-07
  0.211463E+02  0.858293E+02  0.555387E-06 -0.187298E-07
  0.211463E+02  0.883171E+02  0.366968E-06 -0.116994E-07
  0.211463E+02  0.908049E+02  0.347330E-06 -0.591847E-07
  0.211463E+02  0.932927E+02  0.270327E-06 -0.446715E-07
  0.211463E+02  0.957805E+02  0.113309E-06 -0.326954E-07
  0.211463E+02  0.982683E+02  0.486145E-07 -0.600932E-08
  0.211463E+02  0.100756E+03  0.752449E-07  0.168190E-08
  0.236341E+02  0.124390E+01  0.298457E-06 -0.206308E-07
  0.236341E+02  0.373171E+01  0.266459E-06 -0.979107E-08
  0.236341E+02  0.621951E+01  0.257643E-06  0.120882E-07
  0.236341E+02  0.870732E+01  0.239273E-06  0.897812E-08
  0.236341E+02  0.111951E+02  0.154349E-06  0.536969E-08
  0.236341E+02  0.136829E+02  0.272058E-06  0.132347E-07
  0.236341E+02  0.161707E+02  0.120163E-06  0.125759E-07
  0.236341E+02  0.186585E+02  0.255730E-06  0.177165E-07
  0.236341E+02  0.211463E+02  0.141329E-06 -0.962756E-08
  0.236341E+02  0.236341E+02  0.199367E-06 -0.302596E-07
  0.236341E+02  0.261220E+02  0.578288E-06 -0.192322E-07
  0.236341E+02  0.286098E+02  0.699170E-06 -0.479795E-08
  0.236341E+02  0.310976E+02  0.297861E-06  0.377927E-07
  0.236341E+02  0.335854E+02  0.271675E-06  0.629023E-07
  0.236341E+02  0.360732E+02  0.390794E-06  0.648150E-07
  0.236341E+02  0.385610E+02  0.316338E-06 -0.336236E-07
  0.236341E+02  0.410488E+02  0.700644E-06 -0.888179E-07
  0.236341E+02  0.435366E+02  0.884062E-06 -0.109408E-06
  0.236341E+02  0.460244E+02  0.865006E-06 -0.553927E-07
  0.236341E+02  0.485122E+02  0.325995E-06  0.272594E-07
  0.236341E+02  0.510000E+02  0.209762E-06  0.429070E-08
  0.236341E+02  0.534878E+02  0.208567E-06 -0.339612E-08
  0.236341E+02  0.559756E+02  0.245835E-06  0.511047E-07
  0.236341E+02  0.584634E+02  0.377457E-06  0.154403E-06
  0.236341E+02  0.609512E+02  0.211782E-06  0.908930E-07
  0.236341E+02  0.634390E+02  0.783595E-07  0.515813E-07
  0.236341E+02  0.659268E+02  0.545059E-07  0.200909E-07
  0.236341E+02  0.684146E+02  0.394987E-07  0.863215E-08
  0.236341E+02  0.709024E+02  0.845848E-07  0.303067E-08
  0.236341E+02  0.733902E+02  0.452809E-07  0.530005E-09
  0.236341E+02  0.758780E+02  0.707859E-07 -0.359860E-08
  0.236341E+02  0.783659E+02  0.532774E-06 -0.834307E-07
  0.236341E+02  0.808537E+02  0.462708E-06 -0.109648E-06
  0.236341E+02  0.833415E+02  0.677218E-06 -0.653736E-07
  0.236341E+02  0.858293E+02  0.517352E-06  0.457612E-08
  0.236341E+02  0.883171E+02  0.536472E-06 -0.232464E-08
  0.236341E+02  0.908049E+02  0.371035E-06 -0.940524E-08
  0.236341E+02  0.932927E+02  0.227126E-06 -0.107671E-07
  0.236341E+02  0.957805E+02  0.103964E-06 -0.137341E-07
  0.236341E+02  0.982683E+02  0.344903E-07 -0.790344E-08
  0.236341E+02  0.100756E+03  0.358571E-07 -0.314736E-08
  0.261220E+02  0.124390E+01  0.104479E-06  0.972925E-10
  0.261220E+02  0.373171E+01  0.897379E-07  0.992095E-09
  0.261220E+02  0.621951E+01  0.161719E-06  0.129890E-07
  0.261220E+02  0.870732E+01  0.162373E-06  0.110954E-07
  0.261220E+02  0.111951E+02  0.285367E-06  0.388791E-07
  0.261220E+02  0.136829E+02  0.388751E-06  0.100589E-06
  0.261220E+02  0.161707E+02  0.257630E-06  0.525067E-07
  0.261220E+02  0.186585E+02  0.389854E-06  0.191750E-07
  0.261220E+02  0.211463E+02  0.531318E-06 -0.191862E-07
  0.261220E+02  0.236341E+02  0.358978E-06 -0.557294E-07
  0.261220E+02  0.261220E+02  0.718072E-06 -0.821375E-07
  0.261220E+02  0.286098E+02  0.665912E-06 -0.629718E-07
  0.261220E+02  0.310976E+02  0.156068E-06  0.983015E-08
  0.261220E+02  0.335854E+02  0.406016E-06  0.326535E-07
  0.261220E+02  0.360732E+02  0.355836E-06  0.122862E-07
  0.261220E+02  0.385610E+02  0.571934E-06 -0.106106E-07
  0.261220E+02  0.410488E+02  0.409073E-06 -0.414779E-07
  0.261220E+02  0.435366E+02  0.584748E-06 -0.161602E-07
  0.261220E+02  0.460244E+02  0.397043E-06  0.551335E-07
  0.261220E+02  0.485122E+02  0.292212E-06  0.462205E-07
  0.261220E+02  0.510000E+02  0.149066E-06  0.107463E-07
  0.261220E+02  0.534878E+02  0.102171E-06  0.125851E-07
  0.261220E+02  0.559756E+02  0.190680E-06  0.619926E-07
  0.261220E+02  0.584634E+02  0.281880E-06  0.103442E-06
  0.261220E+02  0.609512E+02  0.278289E-06  0.150134E-06
  0.261220E+02  0.634390E+02  0.802749E-07  0.498306E-07
  0.261220E+02  0.659268E+02  0.915293E-07  0.292537E-07
  0.261220E+02  0.684146E+02  0.700168E-07  0.117963E-07
  0.261220E+02  0.709024E+02  0.871207E-07  0.384455E-08
  0.261220E+02  0.733902E+02  0.147663E-06  0.127235E-07
  0.261220E+02  0.758780E+02  0.309244E-06  0.108078E-07
  0.261220E+02  0.783659E+02  0.411122E-06 -0.106817E-07
  0.261220E+02  0.808537E+02  0.527227E-06 -0.564399E-07
  0.261220E+02  0.833415E+02  0.426498E-06 -0.400925E-07
  0.261220E+02  0.858293E+02  0.814772E-06  0.380193E-07
  0.261220E+02  0.883171E+02  0.811084E-06  0.750155E-07
  0.261220E+02  0.908049E+02  0.382017E-06  0.216813E-07
  0.261220E+02  0.932927E+02  0.452845E-06 -0.101458E-07
  0.261220E+02  0.957805E+02  0.154745E-06 -0.240049E-07
  0.261220E+02  0.982683E+02  0.447376E-07 -0.112283E-07
  0.261220E+02  0.100756E+03  0.436961E-07 -0.643161E-08
  0.286098E+02  0.124390E+01  0.505031E-07  0.260283E-08
  0.286098E+02  0.373171E+01  0.585013E-07  0.314369E-08
  0.286098E+02  0.621951E+01  0.840389E-07  0.248117E-08
  0.286098E+02  0.870732E+01  0.169001E-06  0.163029E-07
  0.286098E+02  0.111951E+02  0.141349E-06  0.177778E-07
  0.286098E+02  0.136829E+02  0.349322E-06  0.742803E-07
  0.286098E+02  0.161707E+02  0.572249E-06  0.135935E-06
  0.286098E+02  0.186585E+02  0.425714E-06  0.681015E-07
  0.286098E+02  0.211463E+02  0.752790E-06  0.761333E-07
  0.286098E+02  0.236341E+02  0.792399E-06 -0.604383E-07
  0.286098E+02  0.261220E+02  0.106762E-05 -0.186311E-06
  0.286098E+02  0.286098E+02  0.620777E-06 -0.223197E-07
  0.286098E+02  0.310976E+02  0.153068E-06  0.183362E-07
  0.286098E+02  0.335854E+02  0.419760E-06 -0.402569E-08
  0.286098E+02  0.360732E+02  0.410555E-06 -0.307209E-08
  0.286098E+02  0.385610E+02  0.314622E-06  0.185142E-08
  0.286098E+02  0.410488E+02  0.526275E-06 -0.232406E-07
  0.286098E+02  0.435366E+02  0.185842E-06  0.117457E-07
  0.286098E+02  0.460244E+02  0.375282E-06  0.571543E-07
  0.286098E+02  0.485122E+02  0.209053E-06  0.354019E-07
  0.286098E+02  0.510000E+02  0.206323E-06  0.269978E-07
  0.286098E+02  0.534878E+02  0.850912E-07  0.149970E-07
  0.286098E+02  0.559756E+02  0.121108E-06  0.187076E-07
  0.286098E+02  0.584634E+02  0.235501E-06  0.335672E-07
  0.286098E+02  0.609512E+02  0.133805E-06  0.419351E-07
  0.286098E+02  0.634390E+02  0.161979E-06  0.611933E-07
  0.286098E+02  0.659268E+02  0.125587E-06  0.398707E-07
  0.286098E+02  0.684146E+02  0.110778E-06  0.279927E-07
  0.286098E+02  0.709024E+02  0.258035E-06  0.557001E-07
  0.286098E+02  0.733902E+02  0.392469E-06  0.230734E-07
  0.286098E+02  0.758780E+02  0.440558E-06  0.189381E-07
  0.286098E+02  0.783659E+02  0.643928E-06  0.685889E-07
  0.286098E+02  0.808537E+02  0.522557E-06  0.232923E-07
  0.286098E+02  0.833415E+02  0.633489E-06 -0.175393E-07
  0.286098E+02  0.858293E+02  0.663057E-06  0.105851E-07
  0.286098E+02  0.883171E+02  0.130467E-05  0.108489E-06
  0.286098E+02  0.908049E+02  0.117938E-05  0.397262E-07
  0.286098E+02  0.932927E+02  0.404255E-06 -0.283349E-07
  0.286098E+02  0.957805E+02  0.266617E-06 -0.225671E-07
  0.286098E+02  0.982683E+02  0.114499E-06 -0.346636E-07
  0.286098E+02  0.100756E+03  0.730110E-07 -0.181703E-07
  0.310976E+02  0.124390E+01  0.573328E-07  0.239146E-08
  0.310976E+02  0.373171E+01  0.697967E-07  0.864474E-08
  0.310976E+02  0.621951E+01  0.109491E-06  0.794638E-08
  0.310976E+02  0.870732E+01  0.130264E-06  0.179561E-07
  0.310976E+02  0.111951E+02  0.222715E-06  0.525854E-07
  0.310976E+02  0.136829E+02  0.286458E-06  0.652177E-07
  0.310976E+02  0.161707E+02  0.558135E-06  0.106335E-06
  0.310976E+02  0.186585E+02  0.627197E-06  0.626862E-07
  0.310976E+02  0.211463E+02  0.562097E-06 -0.194412E-07
  0.310976E+02  0.236341E+02  0.147777E-05 -0.129223E-06
  0.310976E+02  0.261220E+02  0.702742E-06 -0.981898E-07
  0.310976E+02  0.286098E+02  0.376589E-06  0.112055E-07
  0.310976E+02  0.310976E+02  0.195093E-06  0.185564E-07
  0.310976E+02  0.335854E+02  0.585584E-06 -0.203106E-07
  0.310976E+02  0.360732E+02  0.284190E-06  0.549212E-08
  0.310976E+02  0.385610E+02  0.375422E-06  0.405175E-08
  0.310976E+02  0.410488E+02  0.445165E-06  0.203783E-07
  0.310976E+02  0.435366E+02  0.244559E-06  0.297501E-07
  0.310976E+02  0.460244E+02  0.315529E-06  0.372848E-07
  0.310976E+02  0.485122E+02  0.249083E-06  0.452813E-07
  0.310976E+02  0.510000E+02  0.266417E-06  0.655740E-07
  0.310976E+02  0.534878E+02  0.176372E-06  0.521829E-07
  0.310976E+02  0.559756E+02  0.235091E-06  0.177356E-08
  0.310976E+02  0.584634E+02  0.183849E-06  0.158231E-07
  0.310976E+02  0.609512E+02  0.175831E-06  0.203593E-07
  0.310976E+02  0.634390E+02  0.138598E-06  0.808218E-08
  0.310976E+02  0.659268E+02  0.139008E-06  0.413839E-07
  0.310976E+02  0.684146E+02  0.307803E-06  0.752963E-07
  0.310976E+02  0.709024E+02  0.206869E-06  0.474165E-07
  0.310976E+02  0.733902E+02  0.803405E-06  0.113375E-06
  0.310976E+02  0.758780E+02  0.682119E-06  0.791078E-07
  0.310976E+02  0.783659E+02  0.553087E-06  0.708431E-07