title="2d vectors xz, t=    0.150E+03"
variables="x","z","vx","vz"
zone i=    21, j=    41, T="   0.150E+03"
  0.124390E+01  0.488061E+00  0.101651E-05  0.636391E-07
  0.124390E+01  0.146418E+01  0.760888E-06  0.804953E-07
  0.124390E+01  0.244030E+01  0.816817E-06  0.503158E-07
  0.124390E+01  0.341643E+01  0.296472E-06  0.321122E-08
  0.124390E+01  0.439255E+01  0.308844E-06 -0.414896E-08
  0.124390E+01  0.536867E+01  0.128819E-06  0.619872E-08
  0.124390E+01  0.634479E+01  0.294422E-06  0.501300E-08
  0.124390E+01  0.732091E+01  0.335238E-06 -0.276128E-10
  0.124390E+01  0.829703E+01  0.509460E-06 -0.423650E-08
  0.124390E+01  0.927316E+01  0.319292E-06 -0.117034E-07
  0.124390E+01  0.102493E+02  0.481247E-06 -0.190881E-07
  0.124390E+01  0.112254E+02  0.145367E-08 -0.545090E-10
  0.124390E+01  0.122015E+02  0.354483E-09  0.384901E-10
  0.124390E+01  0.131776E+02  0.100040E-09  0.127023E-10
  0.124390E+01  0.141538E+02  0.191831E-10  0.963047E-11
  0.124390E+01  0.151299E+02  0.275356E-10 -0.350485E-11
  0.124390E+01  0.161060E+02  0.688880E-06 -0.122866E-06
  0.124390E+01  0.170821E+02  0.551751E-06 -0.985553E-07
  0.124390E+01  0.180583E+02  0.666066E-06 -0.130317E-06
  0.124390E+01  0.190344E+02  0.945316E-06 -0.119254E-06
  0.124390E+01  0.200105E+02  0.550580E-06  0.920434E-07
  0.373171E+01  0.487938E+00  0.687493E-06  0.708997E-07
  0.373171E+01  0.146381E+01  0.887198E-06  0.191586E-06
  0.373171E+01  0.243969E+01  0.117495E-05  0.209213E-06
  0.373171E+01  0.341557E+01  0.725951E-06  0.101973E-06
  0.373171E+01  0.439144E+01  0.134705E-06  0.527948E-07
  0.373171E+01  0.536732E+01  0.275914E-06  0.378494E-07
  0.373171E+01  0.634319E+01  0.277124E-06  0.729724E-08
  0.373171E+01  0.731907E+01  0.430546E-06  0.707970E-08
  0.373171E+01  0.829495E+01  0.483444E-06  0.547439E-09
  0.373171E+01  0.927082E+01  0.515071E-06 -0.207675E-07
  0.373171E+01  0.102467E+02  0.398617E-06 -0.137675E-07
  0.373171E+01  0.112226E+02  0.626583E-09  0.302400E-10
  0.373171E+01  0.121985E+02  0.597811E-09  0.807151E-10
  0.373171E+01  0.131743E+02  0.182489E-09  0.412210E-10
  0.373171E+01  0.141502E+02  0.183589E-10  0.294804E-10
  0.373171E+01  0.151261E+02  0.639068E-06 -0.117812E-06
  0.373171E+01  0.161020E+02  0.572920E-06 -0.144556E-06
  0.373171E+01  0.170778E+02  0.556082E-06 -0.153336E-06
  0.373171E+01  0.180537E+02  0.606274E-06 -0.159061E-06
  0.373171E+01  0.190296E+02  0.632956E-06 -0.110393E-06
  0.373171E+01  0.200055E+02  0.511277E-06 -0.641768E-07
  0.621951E+01  0.487696E+00  0.541138E-06 -0.103586E-08
  0.621951E+01  0.146309E+01  0.683095E-06  0.186824E-07
  0.621951E+01  0.243848E+01  0.779263E-06  0.986155E-07
  0.621951E+01  0.341387E+01  0.620838E-06  0.187384E-06
  0.621951E+01  0.438926E+01  0.278947E-06  0.117369E-06
  0.621951E+01  0.536465E+01  0.469213E-06  0.485282E-07
  0.621951E+01  0.634005E+01  0.340492E-06  0.210602E-07
  0.621951E+01  0.731544E+01  0.448402E-06 -0.477275E-11
  0.621951E+01  0.829083E+01  0.550666E-06  0.220517E-08
  0.621951E+01  0.926622E+01  0.499520E-06  0.284072E-07
  0.621951E+01  0.102416E+02  0.390438E-06  0.142234E-07
  0.621951E+01  0.112170E+02  0.834576E-09  0.211392E-09
  0.621951E+01  0.121924E+02  0.813841E-09  0.196024E-09
  0.621951E+01  0.131678E+02  0.306191E-09  0.156677E-09
  0.621951E+01  0.141432E+02  0.646895E-10  0.438033E-10
  0.621951E+01  0.151186E+02  0.784221E-06  0.145245E-07
  0.621951E+01  0.160940E+02  0.826775E-06 -0.292857E-07
  0.621951E+01  0.170694E+02  0.582095E-06 -0.662154E-07
  0.621951E+01  0.180447E+02  0.497042E-06 -0.635785E-07
  0.621951E+01  0.190201E+02  0.446085E-06 -0.525475E-07
  0.621951E+01  0.199955E+02  0.390597E-06 -0.235498E-07
  0.870732E+01  0.487443E+00  0.513052E-06 -0.204972E-07
  0.870732E+01  0.146233E+01  0.448632E-06 -0.261557E-07
  0.870732E+01  0.243722E+01  0.370831E-06  0.311452E-07
  0.870732E+01  0.341210E+01  0.416928E-06  0.117260E-06
  0.870732E+01  0.438699E+01  0.790391E-06  0.121429E-06
  0.870732E+01  0.536188E+01  0.358565E-06  0.666543E-07
  0.870732E+01  0.633676E+01  0.427585E-06  0.517346E-07
  0.870732E+01  0.731165E+01  0.611280E-06 -0.692038E-09
  0.870732E+01  0.828654E+01  0.395613E-06 -0.917533E-08
  0.870732E+01  0.926142E+01  0.497225E-06 -0.957176E-08
  0.870732E+01  0.102363E+02  0.562982E-06 -0.577310E-08
  0.870732E+01  0.112112E+02  0.426071E-09  0.491127E-09
  0.870732E+01  0.121861E+02  0.120865E-08  0.749982E-09
  0.870732E+01  0.131610E+02  0.585368E-09  0.603866E-09
  0.870732E+01  0.141359E+02  0.613871E-09  0.637403E-09
  0.870732E+01  0.151107E+02  0.817523E-06 -0.149400E-08
  0.870732E+01  0.160856E+02  0.712156E-06  0.699445E-08
  0.870732E+01  0.170605E+02  0.513891E-06 -0.756252E-08
  0.870732E+01  0.180354E+02  0.449893E-06 -0.326244E-07
  0.870732E+01  0.190103E+02  0.353407E-06 -0.341978E-07
  0.870732E+01  0.199852E+02  0.359880E-06 -0.200329E-07
  0.111951E+02  0.487191E+00  0.724616E-06 -0.383977E-07
  0.111951E+02  0.146157E+01  0.392326E-06 -0.515887E-07
  0.111951E+02  0.243596E+01  0.222531E-06 -0.241744E-07
  0.111951E+02  0.341034E+01  0.411341E-06 -0.126515E-07
  0.111951E+02  0.438472E+01  0.633942E-06  0.674299E-07
  0.111951E+02  0.535910E+01  0.313180E-06  0.657742E-07
  0.111951E+02  0.633349E+01  0.694236E-06  0.109700E-07
  0.111951E+02  0.730787E+01  0.526279E-06  0.841837E-08
  0.111951E+02  0.828225E+01  0.614315E-06  0.126335E-07
  0.111951E+02  0.925664E+01  0.515636E-06 -0.149480E-07
  0.111951E+02  0.102310E+02  0.416538E-06 -0.712783E-08
  0.111951E+02  0.112054E+02  0.874371E-09  0.167658E-08
  0.111951E+02  0.121798E+02  0.149630E-08  0.162821E-08
  0.111951E+02  0.131542E+02  0.136309E-08  0.176353E-08
  0.111951E+02  0.141285E+02  0.543256E-09  0.901110E-09
  0.111951E+02  0.151029E+02  0.657184E-06 -0.486188E-08
  0.111951E+02  0.160773E+02  0.682081E-06 -0.298143E-07
  0.111951E+02  0.170517E+02  0.679599E-06 -0.710237E-07
  0.111951E+02  0.180261E+02  0.504319E-06 -0.609848E-07
  0.111951E+02  0.190005E+02  0.256030E-06 -0.339574E-07
  0.111951E+02  0.199748E+02  0.316915E-06 -0.222290E-07
  0.136829E+02  0.486969E+00  0.816952E-06  0.235839E-07
  0.136829E+02  0.146091E+01  0.350489E-06  0.471854E-08
  0.136829E+02  0.243485E+01  0.254179E-06 -0.241120E-07
  0.136829E+02  0.340879E+01  0.281082E-06 -0.114765E-08
  0.136829E+02  0.438272E+01  0.291355E-06  0.262876E-07
  0.136829E+02  0.535666E+01  0.744321E-06  0.659899E-07
  0.136829E+02  0.633060E+01  0.752301E-06  0.105077E-06
  0.136829E+02  0.730454E+01  0.508833E-06  0.103106E-06
  0.136829E+02  0.827848E+01  0.576026E-06  0.733879E-07
  0.136829E+02  0.925242E+01  0.557033E-06  0.363792E-07
  0.136829E+02  0.102264E+02  0.454870E-06  0.729058E-08
  0.136829E+02  0.112003E+02  0.113637E-08  0.205950E-08
  0.136829E+02  0.121742E+02  0.196899E-08  0.219928E-08
  0.136829E+02  0.131482E+02  0.107364E-08  0.141992E-08
  0.136829E+02  0.141221E+02  0.105183E-08  0.207346E-08
  0.136829E+02  0.150960E+02  0.947756E-06 -0.588588E-07
  0.136829E+02  0.160700E+02  0.775030E-06 -0.832909E-07
  0.136829E+02  0.170439E+02  0.571541E-06 -0.263892E-07
  0.136829E+02  0.180179E+02  0.432453E-06 -0.120481E-07
  0.136829E+02  0.189918E+02  0.240205E-06 -0.177024E-07
  0.136829E+02  0.199657E+02  0.299780E-06 -0.213639E-07
  0.161707E+02  0.486777E+00  0.538747E-06  0.394197E-07
  0.161707E+02  0.146033E+01  0.530686E-06  0.914287E-07
  0.161707E+02  0.243389E+01  0.349868E-06  0.797802E-07
  0.161707E+02  0.340744E+01  0.241681E-06  0.755392E-07
  0.161707E+02  0.438099E+01  0.560189E-06  0.413163E-07
  0.161707E+02  0.535455E+01  0.450158E-06  0.616453E-07
  0.161707E+02  0.632810E+01  0.498119E-06  0.858208E-07
  0.161707E+02  0.730166E+01  0.509935E-06  0.816821E-07
  0.161707E+02  0.827521E+01  0.627660E-06  0.403955E-07
  0.161707E+02  0.924877E+01  0.565443E-06 -0.275139E-08
  0.161707E+02  0.102223E+02  0.342240E-06 -0.141536E-07
  0.161707E+02  0.111959E+02  0.442890E-09  0.115583E-08
  0.161707E+02  0.121694E+02  0.863290E-09  0.139643E-08
  0.161707E+02  0.131430E+02  0.155855E-08  0.263595E-08
  0.161707E+02  0.141165E+02  0.181557E-08  0.169045E-08
  0.161707E+02  0.150901E+02  0.943111E-06  0.600235E-07
  0.161707E+02  0.160636E+02  0.604496E-06  0.125964E-06
  0.161707E+02  0.170372E+02  0.500208E-06  0.137782E-06
  0.161707E+02  0.180108E+02  0.496621E-06  0.116720E-06
  0.161707E+02  0.189843E+02  0.285101E-06  0.453054E-07
  0.161707E+02  0.199579E+02  0.254459E-06  0.293589E-08
  0.186585E+02  0.486426E+00  0.354062E-06  0.122085E-07
  0.186585E+02  0.145928E+01  0.446166E-06  0.498705E-07
  0.186585E+02  0.243213E+01  0.318587E-06  0.113223E-06
  0.186585E+02  0.340498E+01  0.229488E-06  0.152564E-06
  0.186585E+02  0.437783E+01  0.725250E-06  0.254857E-06
  0.186585E+02  0.535069E+01  0.382166E-06  0.195928E-06
  0.186585E+02  0.632354E+01  0.600191E-06  0.155924E-06
  0.186585E+02  0.729639E+01  0.696652E-06  0.576676E-07
  0.186585E+02  0.826924E+01  0.524140E-06  0.154030E-07
  0.186585E+02  0.924210E+01  0.597450E-06  0.274244E-08
  0.186585E+02  0.102149E+02  0.236510E-06 -0.205606E-08
  0.186585E+02  0.111878E+02  0.152922E-08  0.427224E-08
  0.186585E+02  0.121607E+02  0.160417E-08  0.461692E-08
  0.186585E+02  0.131335E+02  0.120497E-08  0.293457E-08
  0.186585E+02  0.141064E+02  0.523337E-08  0.439438E-08
  0.186585E+02  0.150792E+02  0.542817E-06  0.494365E-07
  0.186585E+02  0.160521E+02  0.558906E-06  0.134471E-06
  0.186585E+02  0.170249E+02  0.419646E-06  0.118023E-06
  0.186585E+02  0.179978E+02  0.472241E-06  0.960908E-07
  0.186585E+02  0.189706E+02  0.411272E-06  0.681667E-07
  0.186585E+02  0.199435E+02  0.357884E-06  0.162536E-07
  0.211463E+02  0.486144E+00  0.393924E-06  0.207420E-07
  0.211463E+02  0.145843E+01  0.427866E-06  0.882215E-07
  0.211463E+02  0.243072E+01  0.228482E-06  0.130516E-06
  0.211463E+02  0.340301E+01  0.262601E-06  0.147491E-06
  0.211463E+02  0.437530E+01  0.472716E-06  0.118776E-06
  0.211463E+02  0.534758E+01  0.371505E-06  0.149193E-06
  0.211463E+02  0.631987E+01  0.570007E-06  0.160301E-06
  0.211463E+02  0.729216E+01  0.985190E-06  0.194116E-06
  0.211463E+02  0.826445E+01  0.776785E-06  0.122813E-06
  0.211463E+02  0.923674E+01  0.888734E-06  0.749872E-07
  0.211463E+02  0.102090E+02  0.332182E-06  0.273794E-07
  0.211463E+02  0.111813E+02  0.130529E-08  0.377340E-08
  0.211463E+02  0.121536E+02  0.127631E-08  0.359396E-08
  0.211463E+02  0.131259E+02  0.151410E-08  0.681226E-08
  0.211463E+02  0.140982E+02  0.374030E-08  0.561709E-08
  0.211463E+02  0.150705E+02  0.384528E-06  0.207311E-07
  0.211463E+02  0.160428E+02  0.431525E-06  0.424170E-07
  0.211463E+02  0.170150E+02  0.506557E-06  0.556655E-07
  0.211463E+02  0.179873E+02  0.622698E-06  0.679971E-07
  0.211463E+02  0.189596E+02  0.414477E-06  0.598456E-07
  0.211463E+02  0.199319E+02  0.483298E-06  0.192239E-07
  0.236341E+02  0.485803E+00  0.298457E-06  0.520263E-07
  0.236341E+02  0.145741E+01  0.263614E-06  0.137772E-06
  0.236341E+02  0.242901E+01  0.165189E-06  0.152443E-06
  0.236341E+02  0.340062E+01  0.240452E-06  0.174674E-06
  0.236341E+02  0.437222E+01  0.633704E-06  0.236126E-06
  0.236341E+02  0.534383E+01  0.368031E-06  0.181003E-06
  0.236341E+02  0.631543E+01  0.548686E-06  0.155501E-06
  0.236341E+02  0.728704E+01  0.946716E-06  0.173376E-06
  0.236341E+02  0.825864E+01  0.114490E-05  0.134894E-06
  0.236341E+02  0.923025E+01  0.897317E-06  0.633148E-07
  0.236341E+02  0.102019E+02  0.481208E-06  0.307858E-07
  0.236341E+02  0.111735E+02  0.161614E-08  0.891066E-08
  0.236341E+02  0.121451E+02  0.662616E-08  0.129037E-07
  0.236341E+02  0.131167E+02  0.558991E-09  0.470254E-08
  0.236341E+02  0.140883E+02  0.205998E-08  0.107810E-07
  0.236341E+02  0.150599E+02  0.349110E-06  0.201066E-07
  0.236341E+02  0.160315E+02  0.525162E-06  0.211366E-08
  0.236341E+02  0.170031E+02  0.424474E-06  0.141735E-07
  0.236341E+02  0.179747E+02  0.541494E-06  0.242190E-07
  0.236341E+02  0.189463E+02  0.504786E-06  0.167784E-07
  0.236341E+02  0.199179E+02  0.748744E-06  0.441630E-08
  0.261220E+02  0.485440E+00  0.104479E-06  0.173071E-07
  0.261220E+02  0.145632E+01  0.141612E-06  0.558157E-07
  0.261220E+02  0.242720E+01  0.175552E-06  0.103371E-06
  0.261220E+02  0.339808E+01  0.274177E-06  0.109832E-06
  0.261220E+02  0.436896E+01  0.249402E-06  0.804358E-07
  0.261220E+02  0.533984E+01  0.442791E-06  0.138008E-06
  0.261220E+02  0.631072E+01  0.625725E-06  0.880612E-07
  0.261220E+02  0.728160E+01  0.894051E-06  0.525956E-07
  0.261220E+02  0.825248E+01  0.103761E-05  0.707402E-07
  0.261220E+02  0.922336E+01  0.940737E-06  0.886401E-07
  0.261220E+02  0.101942E+02  0.467698E-06  0.384007E-07
  0.261220E+02  0.111651E+02  0.204683E-08  0.145813E-07
  0.261220E+02  0.121360E+02  0.602826E-08  0.143748E-07
  0.261220E+02  0.131069E+02  0.612384E-08  0.182567E-07
  0.261220E+02  0.140778E+02  0.102059E-08  0.707547E-08
  0.261220E+02  0.150486E+02  0.254175E-06  0.670230E-08
  0.261220E+02  0.160195E+02  0.581992E-06  0.219522E-07
  0.261220E+02  0.169904E+02  0.286377E-06  0.122997E-07
  0.261220E+02  0.179613E+02  0.789120E-06 -0.274557E-07
  0.261220E+02  0.189322E+02  0.399304E-06 -0.425525E-07
  0.261220E+02  0.199030E+02  0.688253E-06 -0.383135E-07
  0.286098E+02  0.485110E+00  0.505031E-07  0.721968E-09
  0.286098E+02  0.145533E+01  0.100427E-06  0.535204E-08
  0.286098E+02  0.242555E+01  0.764726E-07  0.133954E-07
  0.286098E+02  0.339577E+01  0.142747E-06  0.384207E-07
  0.286098E+02  0.436599E+01  0.363942E-06  0.662752E-07
  0.286098E+02  0.533621E+01  0.400190E-06  0.317667E-07
  0.286098E+02  0.630643E+01  0.791572E-06  0.619912E-07
  0.286098E+02  0.727666E+01  0.673851E-06  0.479284E-07
  0.286098E+02  0.824688E+01  0.625330E-06  0.525523E-07
  0.286098E+02  0.921710E+01  0.623258E-06  0.454873E-07
  0.286098E+02  0.101873E+02  0.544052E-06  0.258021E-07
  0.286098E+02  0.111575E+02  0.652252E-09  0.443041E-08
  0.286098E+02  0.121278E+02  0.244826E-08  0.544788E-08
  0.286098E+02  0.130980E+02  0.416222E-08  0.671315E-08
  0.286098E+02  0.140682E+02  0.243859E-08  0.899053E-08
  0.286098E+02  0.150384E+02  0.269833E-06 -0.887956E-08
  0.286098E+02  0.160086E+02  0.307311E-06 -0.648824E-08
  0.286098E+02  0.169789E+02  0.496266E-06 -0.224023E-07
  0.286098E+02  0.179491E+02  0.430679E-06 -0.178557E-07
  0.286098E+02  0.189193E+02  0.422235E-06 -0.190605E-07
  0.286098E+02  0.198895E+02  0.395612E-06 -0.258410E-07
  0.310976E+02  0.484723E+00  0.573328E-07 -0.261908E-08
  0.310976E+02  0.145417E+01  0.655214E-07 -0.314179E-08
  0.310976E+02  0.242361E+01  0.593686E-07 -0.517242E-08
  0.310976E+02  0.339306E+01  0.132397E-06 -0.246569E-07
  0.310976E+02  0.436251E+01  0.441564E-06 -0.548603E-07
  0.310976E+02  0.533195E+01  0.257422E-06 -0.210404E-07
  0.310976E+02  0.630140E+01  0.541554E-06  0.615836E-09
  0.310976E+02  0.727084E+01  0.774574E-06  0.644839E-07
  0.310976E+02  0.824029E+01  0.650018E-06  0.724151E-07
  0.310976E+02  0.920973E+01  0.925922E-06  0.451753E-07
  0.310976E+02  0.101792E+02  0.469331E-06  0.463839E-08
  0.310976E+02  0.111486E+02  0.192911E-09  0.261706E-08
  0.310976E+02  0.121181E+02  0.553745E-09  0.276226E-08
  0.310976E+02  0.130875E+02  0.395199E-09  0.234005E-08
  0.310976E+02  0.140570E+02  0.637691E-09  0.322834E-08
  0.310976E+02  0.150264E+02  0.279037E-06  0.367291E-08
  0.310976E+02  0.159959E+02  0.291194E-06 -0.177102E-07
  0.310976E+02  0.169653E+02  0.370384E-06 -0.235511E-07
  0.310976E+02  0.179347E+02  0.544671E-06 -0.346294E-07
  0.310976E+02  0.189042E+02  0.570933E-06 -0.528907E-07
  0.310976E+02  0.198736E+02  0.354683E-06 -0.308173E-07
  0.335854E+02  0.484536E+00  0.666294E-07 -0.420864E-08
  0.335854E+02  0.145361E+01  0.665292E-07 -0.112731E-07
  0.335854E+02  0.242268E+01  0.114104E-06 -0.292357E-07
  0.335854E+02  0.339175E+01  0.236047E-06 -0.581200E-07
  0.335854E+02  0.436082E+01  0.301784E-06 -0.239293E-07
  0.335854E+02  0.532990E+01  0.382309E-06 -0.417569E-07
  0.335854E+02  0.629897E+01  0.510178E-06 -0.898391E-07
  0.335854E+02  0.726804E+01  0.562654E-06 -0.115759E-06
  0.335854E+02  0.823711E+01  0.573801E-06 -0.710610E-07
  0.335854E+02  0.920618E+01  0.100502E-05 -0.391687E-07
  0.335854E+02  0.101753E+02  0.646278E-06 -0.432167E-08
  0.335854E+02  0.111443E+02  0.602994E-10  0.126915E-08
  0.335854E+02  0.121134E+02  0.232476E-09  0.175905E-08
  0.335854E+02  0.130825E+02  0.131122E-09  0.159742E-08
  0.335854E+02  0.140515E+02  0.899246E-10  0.162082E-08
  0.335854E+02  0.150206E+02  0.308965E-06 -0.104223E-07
  0.335854E+02  0.159897E+02  0.588281E-06 -0.485147E-07
  0.335854E+02  0.169588E+02  0.570960E-06 -0.773876E-07
  0.335854E+02  0.179278E+02  0.624477E-06 -0.990488E-07
  0.335854E+02  0.188969E+02  0.618776E-06 -0.100612E-06
  0.335854E+02  0.198660E+02  0.406822E-06 -0.421113E-07
  0.360732E+02  0.484427E+00  0.811261E-07 -0.606444E-08
  0.360732E+02  0.145328E+01  0.593483E-07 -0.117578E-07
  0.360732E+02  0.242213E+01  0.171649E-06 -0.232459E-07
  0.360732E+02  0.339099E+01  0.181046E-06 -0.212398E-07
  0.360732E+02  0.435984E+01  0.310453E-06 -0.420956E-07
  0.360732E+02  0.532869E+01  0.795468E-06 -0.145387E-06
  0.360732E+02  0.629755E+01  0.837843E-06 -0.246553E-06
  0.360732E+02  0.726640E+01  0.557031E-06 -0.156824E-06
  0.360732E+02  0.823525E+01  0.737028E-06 -0.886172E-07
  0.360732E+02  0.920411E+01  0.910799E-06 -0.626952E-07
  0.360732E+02  0.101730E+02  0.576533E-06 -0.217793E-07
  0.360732E+02  0.111418E+02 -0.127702E-10  0.123099E-08
  0.360732E+02  0.121107E+02  0.196182E-10  0.106278E-08
  0.360732E+02  0.130795E+02  0.189725E-09  0.105296E-08
  0.360732E+02  0.140484E+02  0.936679E-10  0.870541E-09
  0.360732E+02  0.150172E+02  0.451783E-06 -0.165037E-07
  0.360732E+02  0.159861E+02  0.637530E-06 -0.561190E-07
  0.360732E+02  0.169549E+02  0.651267E-06 -0.848509E-07
  0.360732E+02  0.179238E+02  0.108878E-05 -0.124231E-06
  0.360732E+02  0.188926E+02  0.601206E-06 -0.877928E-07
  0.360732E+02  0.198615E+02  0.322828E-06 -0.323811E-07
  0.385610E+02  0.484280E+00  0.751278E-07 -0.133090E-08
  0.385610E+02  0.145284E+01  0.743529E-07 -0.115715E-07
  0.385610E+02  0.242140E+01  0.191852E-06 -0.290923E-07
  0.385610E+02  0.338996E+01  0.232889E-06 -0.536801E-07
  0.385610E+02  0.435852E+01  0.567894E-06 -0.128994E-06
  0.385610E+02  0.532708E+01  0.819868E-06 -0.134938E-06
  0.385610E+02  0.629563E+01  0.812736E-06  0.120153E-07
  0.385610E+02  0.726419E+01  0.266739E-06  0.142884E-07
  0.385610E+02  0.823275E+01  0.894508E-06  0.139762E-08
  0.385610E+02  0.920131E+01  0.918848E-06 -0.715052E-08
  0.385610E+02  0.101699E+02  0.499668E-06 -0.509631E-08
  0.385610E+02  0.111384E+02  0.175228E-09  0.734442E-09
  0.385610E+02  0.121070E+02  0.751614E-10  0.501021E-09
  0.385610E+02  0.130755E+02  0.512691E-10  0.558457E-09
  0.385610E+02  0.140441E+02  0.533788E-10  0.523820E-09
  0.385610E+02  0.150127E+02  0.433665E-06  0.613493E-08
  0.385610E+02  0.159812E+02  0.830715E-06  0.443164E-08
  0.385610E+02  0.169498E+02  0.901191E-06 -0.722268E-07
  0.385610E+02  0.179183E+02  0.656975E-06 -0.698633E-07
  0.385610E+02  0.188869E+02  0.450556E-06 -0.307444E-07
  0.385610E+02  0.198555E+02  0.304507E-06 -0.101277E-07
  0.410488E+02  0.484067E+00  0.546724E-07  0.168947E-08
  0.410488E+02  0.145220E+01  0.131696E-06 -0.148853E-07
  0.410488E+02  0.242034E+01  0.210745E-06 -0.439798E-07
  0.410488E+02  0.338847E+01  0.261267E-06 -0.582926E-07
  0.410488E+02  0.435661E+01  0.571941E-06 -0.453449E-07
  0.410488E+02  0.532474E+01  0.382069E-06  0.329113E-07
  0.410488E+02  0.629288E+01  0.374692E-06  0.522909E-07
  0.410488E+02  0.726101E+01  0.719020E-06  0.818336E-07
  0.410488E+02  0.822915E+01  0.673150E-06  0.778572E-08
  0.410488E+02  0.919728E+01  0.110653E-05 -0.797799E-08
  0.410488E+02  0.101654E+02  0.614806E-06 -0.895393E-08
  0.410488E+02  0.111336E+02  0.509218E-10  0.344602E-09
  0.410488E+02  0.121017E+02  0.188697E-09  0.694114E-09
  0.410488E+02  0.130698E+02  0.895373E-10  0.569271E-09
  0.410488E+02  0.140380E+02  0.478505E-10  0.519824E-09
  0.410488E+02  0.150061E+02  0.456706E-06  0.315830E-08
  0.410488E+02  0.159742E+02  0.791214E-06 -0.227462E-08
  0.410488E+02  0.169424E+02  0.108097E-05  0.791552E-08
  0.410488E+02  0.179105E+02  0.765667E-06  0.476301E-07
  0.410488E+02  0.188786E+02  0.440561E-06  0.163955E-07
  0.410488E+02  0.198468E+02  0.371758E-06 -0.164909E-07
  0.435366E+02  0.483796E+00  0.434731E-07 -0.247676E-08
  0.435366E+02  0.145139E+01  0.222107E-06 -0.180512E-07
  0.435366E+02  0.241898E+01  0.168807E-06 -0.236160E-07
  0.435366E+02  0.338657E+01  0.292162E-06 -0.357501E-07
  0.435366E+02  0.435416E+01  0.258192E-06  0.549492E-08
  0.435366E+02  0.532176E+01  0.251852E-06  0.385257E-07
  0.435366E+02  0.628935E+01  0.551614E-06  0.123290E-07
  0.435366E+02  0.725694E+01  0.647208E-06 -0.521581E-07
  0.435366E+02  0.822453E+01  0.114469E-05 -0.912434E-07
  0.435366E+02  0.919212E+01  0.115234E-05 -0.112034E-06
  0.435366E+02  0.101597E+02  0.575301E-06 -0.161024E-07
  0.435366E+02  0.111273E+02 -0.272832E-10  0.205156E-09
  0.435366E+02  0.120949E+02 -0.969164E-10  0.333780E-09
  0.435366E+02  0.130625E+02 -0.110086E-09  0.923407E-09
  0.435366E+02  0.140301E+02  0.488292E-10  0.810112E-09
  0.435366E+02  0.149977E+02  0.478269E-06  0.156686E-08
  0.435366E+02  0.159653E+02  0.900347E-06  0.387112E-07
  0.435366E+02  0.169329E+02  0.854111E-06  0.840927E-07
  0.435366E+02  0.179004E+02  0.716847E-06  0.737766E-07
  0.435366E+02  0.188680E+02  0.734700E-06  0.481695E-07
  0.435366E+02  0.198356E+02  0.341235E-06  0.454257E-08
  0.460244E+02  0.483419E+00  0.908600E-07 -0.122903E-07
  0.460244E+02  0.145026E+01  0.112390E-06 -0.779243E-08
  0.460244E+02  0.241709E+01  0.114623E-06  0.675865E-08
  0.460244E+02  0.338393E+01  0.220060E-06  0.196789E-07
  0.460244E+02  0.435077E+01  0.153777E-06  0.521165E-09
  0.460244E+02  0.531761E+01  0.301211E-06 -0.491313E-07
  0.460244E+02  0.628445E+01  0.791025E-06 -0.114190E-06
  0.460244E+02  0.725128E+01  0.668500E-06 -0.116280E-06
  0.460244E+02  0.821812E+01  0.114536E-05 -0.111454E-06
  0.460244E+02  0.918496E+01  0.599567E-06 -0.391081E-07
  0.460244E+02  0.101518E+02  0.472630E-06 -0.176658E-07
  0.460244E+02  0.111186E+02  0.277720E-09  0.117390E-08
  0.460244E+02  0.120855E+02  0.499775E-10  0.860823E-09
  0.460244E+02  0.130523E+02 -0.478708E-10  0.340905E-09
  0.460244E+02  0.140191E+02  0.160453E-10  0.489244E-09
  0.460244E+02  0.149860E+02  0.527784E-06 -0.241355E-07
  0.460244E+02  0.159528E+02  0.587402E-06 -0.470320E-07
  0.460244E+02  0.169197E+02  0.883728E-06 -0.175008E-07
  0.460244E+02  0.178865E+02  0.995151E-06  0.201386E-07
  0.460244E+02  0.188533E+02  0.496680E-06  0.124059E-07
  0.460244E+02  0.198202E+02  0.594971E-06  0.336623E-08
  0.485122E+02  0.483145E+00  0.121524E-06 -0.761192E-08
  0.485122E+02  0.144943E+01  0.702741E-07 -0.120795E-07
  0.485122E+02  0.241572E+01  0.661558E-07 -0.509080E-08
  0.485122E+02  0.338201E+01  0.127886E-06 -0.419995E-08
  0.485122E+02  0.434830E+01  0.390383E-06 -0.488159E-07
  0.485122E+02  0.531459E+01  0.403260E-06 -0.104183E-06
  0.485122E+02  0.628088E+01  0.479495E-06 -0.841516E-07
  0.485122E+02  0.724717E+01  0.782324E-06 -0.994468E-07
  0.485122E+02  0.821346E+01  0.678941E-06 -0.502748E-07
  0.485122E+02  0.917975E+01  0.570297E-06 -0.661809E-08
  0.485122E+02  0.101460E+02  0.252861E-06 -0.106927E-08
  0.485122E+02  0.111123E+02  0.486782E-09  0.215949E-08
  0.485122E+02  0.120786E+02  0.824570E-09  0.242746E-08
  0.485122E+02  0.130449E+02  0.110234E-08  0.248316E-08
  0.485122E+02  0.140112E+02  0.126723E-09  0.119667E-08
  0.485122E+02  0.149775E+02  0.886444E-06 -0.281916E-07
  0.485122E+02  0.159438E+02  0.737337E-06 -0.710512E-07
  0.485122E+02  0.169101E+02  0.695692E-06 -0.758213E-07
  0.485122E+02  0.178764E+02  0.668492E-06 -0.279043E-07
  0.485122E+02  0.188426E+02  0.570030E-06  0.761832E-10
  0.485122E+02  0.198089E+02  0.427251E-06 -0.119210E-07
  0.510000E+02  0.482684E+00  0.163016E-06 -0.610939E-08
  0.510000E+02  0.144805E+01  0.499530E-07 -0.108775E-07
  0.510000E+02  0.241342E+01  0.975102E-07 -0.235310E-07
  0.510000E+02  0.337879E+01  0.248402E-06 -0.671447E-07
  0.510000E+02  0.434415E+01  0.458398E-06 -0.110064E-06
  0.510000E+02  0.530952E+01  0.416645E-06 -0.135085E-06
  0.510000E+02  0.627489E+01  0.473228E-06 -0.176920E-06
  0.510000E+02  0.724026E+01  0.526677E-06 -0.137646E-06
  0.510000E+02  0.820562E+01  0.484222E-06 -0.593840E-07
  0.510000E+02  0.917099E+01  0.392634E-06 -0.121832E-07
  0.510000E+02  0.101364E+02  0.280885E-06  0.955029E-08
  0.510000E+02  0.111017E+02  0.160407E-09  0.427841E-08
  0.510000E+02  0.120671E+02  0.453750E-09  0.648304E-08
  0.510000E+02  0.130325E+02  0.950081E-09  0.637965E-08
  0.510000E+02  0.139978E+02  0.688997E-09  0.760670E-08
  0.510000E+02  0.149632E+02  0.888571E-06  0.403734E-07
  0.510000E+02  0.159286E+02  0.738226E-06  0.707195E-07
  0.510000E+02  0.168939E+02  0.832133E-06  0.130480E-06
  0.510000E+02  0.178593E+02  0.715817E-06  0.565200E-07
  0.510000E+02  0.188247E+02  0.504351E-06  0.159734E-07
  0.510000E+02  0.197900E+02  0.536301E-06  0.597322E-08
  0.534878E+02  0.482145E+00  0.154295E-06 -0.559914E-08
  0.534878E+02  0.144644E+01  0.901477E-07 -0.248902E-07
  0.534878E+02  0.241073E+01  0.204309E-06 -0.887877E-07
  0.534878E+02  0.337502E+01  0.319986E-06 -0.140296E-06
  0.534878E+02  0.433931E+01  0.445519E-06 -0.118198E-06
  0.534878E+02  0.530360E+01  0.418834E-06 -0.986783E-07
  0.534878E+02  0.626789E+01  0.392659E-06 -0.106221E-06
  0.534878E+02  0.723218E+01  0.272822E-06 -0.714966E-07
  0.534878E+02  0.819647E+01  0.292185E-06 -0.389006E-07
  0.534878E+02  0.916076E+01  0.284941E-06 -0.151526E-08
  0.534878E+02  0.101251E+02  0.198120E-06  0.777065E-08
  0.534878E+02  0.110893E+02  0.186941E-08  0.100553E-07
  0.534878E+02  0.120536E+02  0.285215E-08  0.832050E-08
  0.534878E+02  0.130179E+02  0.331475E-08  0.671293E-08
  0.534878E+02  0.139822E+02  0.137220E-08  0.417897E-08
  0.534878E+02  0.149465E+02  0.700011E-06  0.658140E-07
  0.534878E+02  0.159108E+02  0.813467E-06  0.167203E-06
  0.534878E+02  0.168751E+02  0.644953E-06  0.125671E-06
  0.534878E+02  0.178394E+02  0.112347E-05  0.188753E-06
  0.534878E+02  0.188037E+02  0.730180E-06  0.137616E-06
  0.534878E+02  0.197680E+02  0.883175E-06  0.368711E-07
  0.559756E+02  0.481569E+00  0.248201E-06 -0.271542E-07
  0.559756E+02  0.144471E+01  0.197803E-06 -0.729494E-07
  0.559756E+02  0.240784E+01  0.172189E-06 -0.675584E-07
  0.559756E+02  0.337098E+01  0.213770E-06 -0.902011E-07
  0.559756E+02  0.433412E+01  0.232313E-06 -0.108950E-06
  0.559756E+02  0.529725E+01  0.470896E-06 -0.133956E-06
  0.559756E+02  0.626039E+01  0.270992E-06 -0.601679E-07
  0.559756E+02  0.722353E+01  0.221431E-06 -0.168979E-07
  0.559756E+02  0.818667E+01  0.118188E-06  0.158509E-07
  0.559756E+02  0.914980E+01  0.217880E-06  0.431181E-07
  0.559756E+02  0.101129E+02  0.208563E-06  0.408873E-07
  0.559756E+02  0.110761E+02  0.358514E-08  0.277713E-07
  0.559756E+02  0.120392E+02  0.496832E-08  0.333311E-07
  0.559756E+02  0.130024E+02  0.262457E-08  0.335344E-07
  0.559756E+02  0.139655E+02  0.346497E-08  0.516291E-07
  0.559756E+02  0.149286E+02  0.420100E-06  0.684322E-07
  0.559756E+02  0.158918E+02  0.506711E-06  0.136477E-06
  0.559756E+02  0.168549E+02  0.121975E-05  0.253154E-06
  0.559756E+02  0.178180E+02  0.682843E-06  0.212053E-06
  0.559756E+02  0.187812E+02  0.903001E-06  0.295701E-06
  0.559756E+02  0.197443E+02  0.194865E-05  0.194335E-06
  0.584634E+02  0.481256E+00  0.321458E-06 -0.308616E-07
  0.584634E+02  0.144377E+01  0.174524E-06 -0.621186E-07
  0.584634E+02  0.240628E+01  0.196196E-06 -0.935067E-07
  0.584634E+02  0.336879E+01  0.317212E-06 -0.901295E-07
  0.584634E+02  0.433130E+01  0.260469E-06 -0.781930E-07
  0.584634E+02  0.529381E+01  0.169770E-06 -0.172088E-07
  0.584634E+02  0.625633E+01  0.148486E-06  0.530587E-08
  0.584634E+02  0.721884E+01  0.933885E-07  0.213229E-07
  0.584634E+02  0.818135E+01  0.103527E-06  0.366970E-07
  0.584634E+02  0.914386E+01  0.125562E-06  0.388334E-07
  0.584634E+02  0.101064E+02  0.258534E-06  0.600171E-07
  0.584634E+02  0.110689E+02  0.266403E-08  0.555749E-07
  0.584634E+02  0.120314E+02 -0.260457E-08  0.669178E-07
  0.584634E+02  0.129939E+02 -0.501095E-08  0.906921E-07
  0.584634E+02  0.139564E+02  0.214091E-08  0.581038E-07
  0.584634E+02  0.149189E+02  0.321076E-06  0.880309E-07
  0.584634E+02  0.158814E+02  0.506598E-06  0.926375E-07
  0.584634E+02  0.168440E+02  0.608650E-06  0.148812E-06
  0.584634E+02  0.178065E+02  0.662690E-06  0.307411E-06
  0.584634E+02  0.187690E+02  0.138578E-05  0.237585E-06
  0.584634E+02  0.197315E+02  0.290674E-05 -0.108428E-06
  0.609512E+02  0.481113E+00  0.613833E-06 -0.168451E-07
  0.609512E+02  0.144334E+01  0.301652E-06 -0.298037E-07
  0.609512E+02  0.240557E+01  0.836453E-07 -0.126500E-07
  0.609512E+02  0.336779E+01  0.226430E-06 -0.122930E-07
  0.609512E+02  0.433002E+01  0.183160E-06  0.823766E-08
  0.609512E+02  0.529225E+01  0.124290E-06  0.129396E-07
  0.609512E+02  0.625447E+01  0.936518E-07  0.165173E-07
  0.609512E+02  0.721670E+01  0.644538E-07  0.186689E-07
  0.609512E+02  0.817893E+01  0.684769E-07  0.204179E-07
  0.609512E+02  0.914116E+01  0.100412E-06  0.365865E-07
  0.609512E+02  0.101034E+02  0.172291E-06  0.550790E-07
  0.609512E+02  0.110656E+02  0.669694E-08  0.868948E-07
  0.609512E+02  0.120278E+02  0.368434E-09  0.758142E-07
  0.609512E+02  0.129901E+02  0.512065E-08  0.458000E-07
  0.609512E+02  0.139523E+02  0.906448E-08  0.470404E-07
  0.609512E+02  0.149145E+02  0.181109E-06  0.569231E-07
  0.609512E+02  0.158767E+02  0.455612E-06  0.128403E-06
  0.609512E+02  0.168390E+02  0.837228E-06  0.143962E-06
  0.609512E+02  0.178012E+02  0.751588E-06 -0.285496E-07
  0.609512E+02  0.187634E+02  0.469581E-05 -0.721868E-06