variables="x","h","c"
zone i=     42,T= "1dxhc;t= 0.1500E+03y,z:   1   1"
    0.00000E+00    0.50000E+00    0.00000E+00
    0.24878E+01    0.49565E+00    0.28204E-21
    0.49756E+01    0.49024E+00    0.11325E-20
    0.74634E+01    0.48523E+00    0.66200E-20
    0.99512E+01    0.48075E+00    0.37108E-19
    0.12439E+02    0.47786E+00    0.14619E-18
    0.14927E+02    0.47273E+00    0.36837E-18
    0.17415E+02    0.46818E+00    0.93395E-18
    0.19902E+02    0.46575E+00    0.39059E-17
    0.22390E+02    0.46173E+00    0.12318E-16
    0.24878E+02    0.45810E+00    0.55743E-16
    0.27366E+02    0.45348E+00    0.40798E-15
    0.29854E+02    0.44633E+00    0.29971E-14
    0.32341E+02    0.43725E+00    0.16197E-13
    0.34829E+02    0.42828E+00    0.78347E-13
    0.37317E+02    0.42268E+00    0.26480E-12
    0.39805E+02    0.41579E+00    0.12247E-11
    0.42293E+02    0.41214E+00    0.28945E-11
    0.44780E+02    0.40409E+00    0.65752E-11
    0.47268E+02    0.39618E+00    0.17558E-10
    0.49756E+02    0.38824E+00    0.40402E-10
    0.52244E+02    0.38385E+00    0.14213E-09
    0.54732E+02    0.37847E+00    0.26946E-09
    0.57220E+02    0.37619E+00    0.12317E-08
    0.59707E+02    0.37191E+00    0.34100E-08
    0.62195E+02    0.36657E+00    0.11991E-07
    0.64683E+02    0.36036E+00    0.41205E-07
    0.67171E+02    0.35474E+00    0.15216E-06
    0.69659E+02    0.34944E+00    0.56072E-06
    0.72146E+02    0.34374E+00    0.21998E-05
    0.74634E+02    0.33827E+00    0.76419E-05
    0.77122E+02    0.33206E+00    0.31382E-04
    0.79610E+02    0.32486E+00    0.12657E-03
    0.82098E+02    0.31842E+00    0.75777E-03
    0.84585E+02    0.31668E+00   -0.11528E-02
    0.87073E+02    0.32089E+00    0.68075E-01
    0.89561E+02    0.33213E+00    0.29793E+00
    0.92049E+02    0.34452E+00    0.53421E+00
    0.94537E+02    0.36087E+00    0.72466E+00
    0.97024E+02    0.37576E+00    0.82847E+00
    0.99512E+02    0.39270E+00    0.90811E+00
    0.10200E+03    0.40014E+00    0.10000E+01
zone i=     42,T= "1dxhc;t= 0.1500E+03y,z:   1  12"
    0.00000E+00    0.50000E+00    0.00000E+00
    0.24878E+01    0.49274E+00    0.17910E-19
    0.49756E+01    0.48978E+00    0.80238E-19
    0.74634E+01    0.48497E+00    0.29774E-18
    0.99512E+01    0.48235E+00    0.82268E-18
    0.12439E+02    0.47866E+00    0.22806E-17
    0.14927E+02    0.47427E+00    0.13289E-16
    0.17415E+02    0.47094E+00    0.30895E-16
    0.19902E+02    0.46754E+00    0.32281E-16
    0.22390E+02    0.46058E+00    0.10792E-15
    0.24878E+02    0.45613E+00    0.37486E-15
    0.27366E+02    0.45237E+00    0.70917E-15
    0.29854E+02    0.44734E+00    0.18096E-14
    0.32341E+02    0.44005E+00    0.31372E-14
    0.34829E+02    0.43129E+00    0.20142E-14
    0.37317E+02    0.42133E+00    0.29650E-14
    0.39805E+02    0.41548E+00    0.75229E-14
    0.42293E+02    0.40943E+00    0.16919E-13
    0.44780E+02    0.40477E+00    0.12339E-13
    0.47268E+02    0.40121E+00    0.73426E-14
    0.49756E+02    0.39561E+00    0.29381E-14
    0.52244E+02    0.38901E+00   -0.26435E-13
    0.54732E+02    0.38215E+00   -0.21497E-12
    0.57220E+02    0.37520E+00   -0.17124E-11
    0.59707E+02    0.36941E+00   -0.14176E-10
    0.62195E+02    0.36319E+00   -0.11466E-09
    0.64683E+02    0.35800E+00   -0.80357E-09
    0.67171E+02    0.35353E+00   -0.17385E-08
    0.69659E+02    0.34748E+00   -0.65923E-08
    0.72146E+02    0.34263E+00   -0.33959E-07
    0.74634E+02    0.33718E+00   -0.89428E-07
    0.77122E+02    0.33014E+00   -0.15728E-06
    0.79610E+02    0.32221E+00   -0.47422E-08
    0.82098E+02    0.31333E+00    0.56480E-05
    0.84585E+02    0.30523E+00    0.54413E-04
    0.87073E+02    0.29365E+00    0.46598E-03
    0.89561E+02    0.28369E+00    0.50403E-02
    0.92049E+02    0.27256E+00    0.30141E-01
    0.94537E+02    0.25848E+00    0.89569E-01
    0.97024E+02    0.23390E+00    0.21636E+00
    0.99512E+02    0.19712E+00    0.52108E+00
    0.10200E+03    0.16005E+00    0.10000E+01
zone i=     42,T= "1dxhc;t= 0.1500E+03y,z:   1  22"
    0.00000E+00    0.49941E+00   -0.78727E-16
    0.24878E+01    0.49772E+00   -0.54497E-16
    0.49756E+01    0.49420E+00   -0.90098E-16
    0.74634E+01    0.48845E+00   -0.96689E-16
    0.99512E+01    0.48238E+00   -0.10677E-15
    0.12439E+02    0.47846E+00   -0.64303E-16
    0.14927E+02    0.46913E+00   -0.75301E-16
    0.17415E+02    0.46140E+00   -0.96311E-16
    0.19902E+02    0.45326E+00   -0.19266E-15
    0.22390E+02    0.44225E+00   -0.76634E-15
    0.24878E+02    0.43446E+00   -0.45842E-14
    0.27366E+02    0.42769E+00   -0.20748E-13
    0.29854E+02    0.42221E+00   -0.78482E-13
    0.32341E+02    0.41983E+00   -0.20788E-12
    0.34829E+02    0.41346E+00   -0.63924E-12
    0.37317E+02    0.40672E+00   -0.20888E-11
    0.39805E+02    0.39974E+00   -0.44184E-11
    0.42293E+02    0.38568E+00   -0.13706E-10
    0.44780E+02    0.37672E+00   -0.21059E-10
    0.47268E+02    0.35678E+00   -0.62724E-10
    0.49756E+02    0.32309E+00   -0.16838E-09
    0.52244E+02    0.30066E+00   -0.35936E-09
    0.54732E+02    0.28386E+00   -0.74174E-09
    0.57220E+02    0.26246E+00   -0.18083E-08
    0.59707E+02    0.24640E+00   -0.77743E-08
    0.62195E+02    0.23310E+00   -0.24360E-07
    0.64683E+02    0.22734E+00   -0.13643E-07
    0.67171E+02    0.22141E+00   -0.23216E-07
    0.69659E+02    0.21648E+00    0.17763E-07
    0.72146E+02    0.20423E+00   -0.23901E-08
    0.74634E+02    0.19756E+00    0.35539E-08
    0.77122E+02    0.18109E+00    0.11314E-07
    0.79610E+02    0.15143E+00    0.69953E-07
    0.82098E+02    0.13504E+00    0.23089E-06
    0.84585E+02    0.11585E+00    0.10366E-05
    0.87073E+02    0.10140E+00    0.45094E-05
    0.89561E+02    0.83275E-01    0.16824E-04
    0.92049E+02    0.68682E-01    0.41205E-04
    0.94537E+02    0.59113E-01    0.29308E-04
    0.97024E+02    0.48547E-01    0.18431E-04
    0.99512E+02    0.34307E-01   -0.14677E-03
    0.10200E+03    0.70189E-02   -0.51668E-03
zone i=     42,T= "1dxhc;t= 0.3000E+03y,z:   1   1"
    0.00000E+00    0.50000E+00    0.00000E+00
    0.24878E+01    0.49566E+00    0.45869E-18
    0.49756E+01    0.49026E+00    0.17283E-17
    0.74634E+01    0.48526E+00    0.83967E-17
    0.99512E+01    0.48079E+00    0.38643E-16
    0.12439E+02    0.47791E+00    0.13089E-15
    0.14927E+02    0.47279E+00    0.29823E-15
    0.17415E+02    0.46826E+00    0.73634E-15
    0.19902E+02    0.46583E+00    0.25791E-14
    0.22390E+02    0.46182E+00    0.70355E-14
    0.24878E+02    0.45819E+00    0.26325E-13
    0.27366E+02    0.45359E+00    0.14844E-12
    0.29854E+02    0.44647E+00    0.83967E-12
    0.32341E+02    0.43741E+00    0.35528E-11
    0.34829E+02    0.42847E+00    0.14058E-10
    0.37317E+02    0.42289E+00    0.39708E-10
    0.39805E+02    0.41602E+00    0.15273E-09
    0.42293E+02    0.41239E+00    0.30727E-09
    0.44780E+02    0.40437E+00    0.62899E-09
    0.47268E+02    0.39649E+00    0.14605E-08
    0.49756E+02    0.38859E+00    0.30362E-08
    0.52244E+02    0.38423E+00    0.96298E-08
    0.54732E+02    0.37887E+00    0.19749E-07
    0.57220E+02    0.37661E+00    0.74661E-07
    0.59707E+02    0.37236E+00    0.19345E-06
    0.62195E+02    0.36706E+00    0.62040E-06
    0.64683E+02    0.36092E+00    0.19268E-05
    0.67171E+02    0.35536E+00    0.63248E-05
    0.69659E+02    0.35016E+00    0.20930E-04
    0.72146E+02    0.34463E+00    0.77437E-04
    0.74634E+02    0.33942E+00    0.27943E-03
    0.77122E+02    0.33372E+00    0.11729E-02
    0.79610E+02    0.32759E+00    0.56637E-02
    0.82098E+02    0.32562E+00   -0.24742E-02
    0.84585E+02    0.32977E+00    0.18232E+00
    0.87073E+02    0.34233E+00    0.39224E+00
    0.89561E+02    0.35499E+00    0.58719E+00
    0.92049E+02    0.36538E+00    0.74279E+00
    0.94537E+02    0.37753E+00    0.84789E+00
    0.97024E+02    0.38772E+00    0.89848E+00
    0.99512E+02    0.39929E+00    0.94831E+00
    0.10200E+03    0.40013E+00    0.10000E+01
zone i=     42,T= "1dxhc;t= 0.3000E+03y,z:   1  12"
    0.00000E+00    0.50000E+00    0.00000E+00
    0.24878E+01    0.49276E+00    0.10653E-16
    0.49756E+01    0.48980E+00    0.41298E-16
    0.74634E+01    0.48500E+00    0.12894E-15
    0.99512E+01    0.48238E+00    0.30320E-15
    0.12439E+02    0.47871E+00    0.73139E-15
    0.14927E+02    0.47432E+00    0.35064E-14
    0.17415E+02    0.47101E+00    0.69007E-14
    0.19902E+02    0.46762E+00    0.63619E-14
    0.22390E+02    0.46067E+00    0.19434E-13
    0.24878E+02    0.45624E+00    0.59232E-13
    0.27366E+02    0.45248E+00    0.10490E-12
    0.29854E+02    0.44747E+00    0.24938E-12
    0.32341E+02    0.44020E+00    0.38599E-12
    0.34829E+02    0.43147E+00    0.23348E-12
    0.37317E+02    0.42154E+00    0.33741E-12
    0.39805E+02    0.41572E+00    0.66858E-12
    0.42293E+02    0.40968E+00    0.10408E-11
    0.44780E+02    0.40505E+00   -0.52321E-12
    0.47268E+02    0.40150E+00   -0.24794E-11
    0.49756E+02    0.39593E+00   -0.92787E-11
    0.52244E+02    0.38935E+00   -0.22401E-10
    0.54732E+02    0.38253E+00   -0.72350E-10
    0.57220E+02    0.37561E+00   -0.29578E-09
    0.59707E+02    0.36985E+00   -0.13504E-08
    0.62195E+02    0.36366E+00   -0.58864E-08
    0.64683E+02    0.35850E+00   -0.26768E-07
    0.67171E+02    0.35404E+00   -0.42765E-07
    0.69659E+02    0.34799E+00   -0.14433E-06
    0.72146E+02    0.34310E+00   -0.60519E-06
    0.74634E+02    0.33753E+00   -0.17129E-05
    0.77122E+02    0.33019E+00   -0.28544E-05
    0.79610E+02    0.32154E+00    0.93905E-06
    0.82098E+02    0.31101E+00    0.90540E-04
    0.84585E+02    0.30071E+00    0.57127E-03
    0.87073E+02    0.28565E+00    0.29177E-02
    0.89561E+02    0.27361E+00    0.14658E-01
    0.92049E+02    0.26173E+00    0.51184E-01
    0.94537E+02    0.24813E+00    0.11779E+00
    0.97024E+02    0.22566E+00    0.24159E+00
    0.99512E+02    0.19282E+00    0.53402E+00
    0.10200E+03    0.16005E+00    0.10000E+01
zone i=     42,T= "1dxhc;t= 0.3000E+03y,z:   1  22"
    0.00000E+00    0.49941E+00   -0.10519E-13
    0.24878E+01    0.49772E+00   -0.73005E-14
    0.49756E+01    0.49420E+00   -0.12763E-13
    0.74634E+01    0.48845E+00   -0.15698E-13
    0.99512E+01    0.48238E+00   -0.17614E-13
    0.12439E+02    0.47845E+00   -0.13403E-13
    0.14927E+02    0.46912E+00   -0.15953E-13
    0.17415E+02    0.46140E+00   -0.25526E-13
    0.19902E+02    0.45325E+00   -0.46438E-13
    0.22390E+02    0.44224E+00   -0.17448E-12
    0.24878E+02    0.43445E+00   -0.81315E-12
    0.27366E+02    0.42768E+00   -0.26802E-11
    0.29854E+02    0.42220E+00   -0.81345E-11
    0.32341E+02    0.41982E+00   -0.18021E-10
    0.34829E+02    0.41345E+00   -0.46351E-10
    0.37317E+02    0.40670E+00   -0.12234E-09
    0.39805E+02    0.39972E+00   -0.22218E-09
    0.42293E+02    0.38567E+00   -0.56924E-09
    0.44780E+02    0.37670E+00   -0.74981E-09
    0.47268E+02    0.35676E+00   -0.18718E-08
    0.49756E+02    0.32305E+00   -0.39754E-08
    0.52244E+02    0.30062E+00   -0.68908E-08
    0.54732E+02    0.28382E+00   -0.12961E-07
    0.57220E+02    0.26241E+00   -0.29359E-07
    0.59707E+02    0.24634E+00   -0.98173E-07
    0.62195E+02    0.23304E+00   -0.23943E-06
    0.64683E+02    0.22728E+00   -0.10550E-06
    0.67171E+02    0.22136E+00   -0.15512E-06
    0.69659E+02    0.21642E+00    0.20756E-06
    0.72146E+02    0.20416E+00    0.48591E-08
    0.74634E+02    0.19750E+00    0.83167E-07
    0.77122E+02    0.18102E+00    0.23686E-06
    0.79610E+02    0.15135E+00    0.11335E-05
    0.82098E+02    0.13496E+00    0.28728E-05
    0.84585E+02    0.11577E+00    0.91846E-05
    0.87073E+02    0.10133E+00    0.24376E-04
    0.89561E+02    0.83223E-01    0.54538E-04
    0.92049E+02    0.68646E-01    0.69614E-04
    0.94537E+02    0.59085E-01    0.63552E-04
    0.97024E+02    0.48516E-01   -0.11914E-04
    0.99512E+02    0.34271E-01   -0.11517E-03
    0.10200E+03    0.70088E-02   -0.60471E-03
zone i=     42,T= "1dxhc;t= 0.4500E+03y,z:   1   1"
    0.00000E+00    0.50000E+00    0.00000E+00
    0.24878E+01    0.49568E+00    0.51311E-16
    0.49756E+01    0.49030E+00    0.18474E-15
    0.74634E+01    0.48532E+00    0.78135E-15
    0.99512E+01    0.48087E+00    0.30949E-14
    0.12439E+02    0.47800E+00    0.93836E-14
    0.14927E+02    0.47290E+00    0.20102E-13
    0.17415E+02    0.46839E+00    0.48898E-13
    0.19902E+02    0.46597E+00    0.15032E-12
    0.22390E+02    0.46198E+00    0.37150E-12
    0.24878E+02    0.45837E+00    0.12109E-11
    0.27366E+02    0.45379E+00    0.55943E-11
    0.29854E+02    0.44670E+00    0.25928E-10
    0.32341E+02    0.43770E+00    0.91426E-10
    0.34829E+02    0.42880E+00    0.31273E-09
    0.37317E+02    0.42325E+00    0.78108E-09
    0.39805E+02    0.41642E+00    0.26457E-08
    0.42293E+02    0.41281E+00    0.48340E-08
    0.44780E+02    0.40484E+00    0.93539E-08
    0.47268E+02    0.39700E+00    0.20093E-07
    0.49756E+02    0.38916E+00    0.39987E-07
    0.52244E+02    0.38482E+00    0.11884E-06
    0.54732E+02    0.37950E+00    0.25484E-06
    0.57220E+02    0.37726E+00    0.84694E-06
    0.59707E+02    0.37305E+00    0.21166E-05
    0.62195E+02    0.36780E+00    0.63363E-05
    0.64683E+02    0.36172E+00    0.18803E-04
    0.67171E+02    0.35625E+00    0.57424E-04
    0.69659E+02    0.35116E+00    0.17324E-03
    0.72146E+02    0.34582E+00    0.58092E-03
    0.74634E+02    0.34093E+00    0.18231E-02
    0.77122E+02    0.33585E+00    0.54373E-02
    0.79610E+02    0.33207E+00   -0.70497E-02
    0.82098E+02    0.33611E+00    0.21503E+00
    0.84585E+02    0.34291E+00    0.39299E+00
    0.87073E+02    0.35589E+00    0.59412E+00
    0.89561E+02    0.36680E+00    0.71770E+00
    0.92049E+02    0.37531E+00    0.81846E+00
    0.94537E+02    0.38497E+00    0.89190E+00
    0.97024E+02    0.39286E+00    0.92387E+00
    0.99512E+02    0.40206E+00    0.96446E+00
    0.10200E+03    0.40014E+00    0.10000E+01
zone i=     42,T= "1dxhc;t= 0.4500E+03y,z:   1  12"
    0.00000E+00    0.50000E+00    0.00000E+00
    0.24878E+01    0.49279E+00    0.52709E-15
    0.49756E+01    0.48985E+00    0.18407E-14
    0.74634E+01    0.48506E+00    0.50824E-14
    0.99512E+01    0.48246E+00    0.10674E-13
    0.12439E+02    0.47880E+00    0.23423E-13
    0.14927E+02    0.47443E+00    0.95013E-13
    0.17415E+02    0.47113E+00    0.16645E-12
    0.19902E+02    0.46775E+00    0.14481E-12
    0.22390E+02    0.46084E+00    0.40515E-12
    0.24878E+02    0.45642E+00    0.11128E-11
    0.27366E+02    0.45269E+00    0.19040E-11
    0.29854E+02    0.44770E+00    0.42565E-11
    0.32341E+02    0.44046E+00    0.61834E-11
    0.34829E+02    0.43178E+00    0.38898E-11
    0.37317E+02    0.42190E+00    0.54911E-11
    0.39805E+02    0.41611E+00    0.94325E-11
    0.42293E+02    0.41011E+00    0.11610E-10
    0.44780E+02    0.40550E+00   -0.14227E-10
    0.47268E+02    0.40198E+00   -0.46538E-10
    0.49756E+02    0.39644E+00   -0.14981E-09
    0.52244E+02    0.38990E+00   -0.31786E-09
    0.54732E+02    0.38313E+00   -0.86803E-09
    0.57220E+02    0.37626E+00   -0.29196E-08
    0.59707E+02    0.37053E+00   -0.11059E-07
    0.62195E+02    0.36438E+00   -0.41406E-07
    0.64683E+02    0.35923E+00   -0.16478E-06
    0.67171E+02    0.35478E+00   -0.25936E-06
    0.69659E+02    0.34871E+00   -0.74448E-06
    0.72146E+02    0.34376E+00   -0.29230E-05
    0.74634E+02    0.33804E+00   -0.86915E-05
    0.77122E+02    0.33030E+00   -0.12031E-04
    0.79610E+02    0.32087E+00    0.15191E-04
    0.82098E+02    0.30891E+00    0.37233E-03
    0.84585E+02    0.29709E+00    0.16255E-02
    0.87073E+02    0.28032E+00    0.60564E-02
    0.89561E+02    0.26768E+00    0.21133E-01
    0.92049E+02    0.25585E+00    0.60719E-01
    0.94537E+02    0.24277E+00    0.12783E+00
    0.97024E+02    0.22150E+00    0.24926E+00
    0.99512E+02    0.19067E+00    0.53767E+00
    0.10200E+03    0.16005E+00    0.10000E+01
zone i=     42,T= "1dxhc;t= 0.4500E+03y,z:   1  22"
    0.00000E+00    0.49941E+00   -0.14812E-12
    0.24878E+01    0.49772E+00   -0.10394E-12
    0.49756E+01    0.49420E+00   -0.19490E-12
    0.74634E+01    0.48845E+00   -0.25894E-12
    0.99512E+01    0.48238E+00   -0.30602E-12
    0.12439E+02    0.47846E+00   -0.27273E-12
    0.14927E+02    0.46913E+00   -0.35859E-12
    0.17415E+02    0.46140E+00   -0.63746E-12
    0.19902E+02    0.45326E+00   -0.11200E-11
    0.22390E+02    0.44225E+00   -0.38610E-11
    0.24878E+02    0.43446E+00   -0.14613E-10
    0.27366E+02    0.42769E+00   -0.38156E-10
    0.29854E+02    0.42221E+00   -0.98606E-10
    0.32341E+02    0.41984E+00   -0.19447E-09
    0.34829E+02    0.41346E+00   -0.44729E-09
    0.37317E+02    0.40671E+00   -0.10267E-08
    0.39805E+02    0.39973E+00   -0.17016E-08
    0.42293E+02    0.38568E+00   -0.39172E-08
    0.44780E+02    0.37671E+00   -0.49477E-08
    0.47268E+02    0.35677E+00   -0.11052E-07
    0.49756E+02    0.32306E+00   -0.20952E-07
    0.52244E+02    0.30062E+00   -0.33053E-07
    0.54732E+02    0.28382E+00   -0.58489E-07
    0.57220E+02    0.26241E+00   -0.12477E-06
    0.59707E+02    0.24634E+00   -0.35041E-06
    0.62195E+02    0.23304E+00   -0.70864E-06
    0.64683E+02    0.22727E+00   -0.32192E-06
    0.67171E+02    0.22134E+00   -0.43930E-06
    0.69659E+02    0.21640E+00    0.60517E-06
    0.72146E+02    0.20415E+00    0.14258E-06
    0.74634E+02    0.19747E+00    0.44223E-06
    0.77122E+02    0.18099E+00    0.11541E-05
    0.79610E+02    0.15131E+00    0.41769E-05
    0.82098E+02    0.13492E+00    0.83170E-05
    0.84585E+02    0.11573E+00    0.21735E-04
    0.87073E+02    0.10129E+00    0.43317E-04
    0.89561E+02    0.83200E-01    0.76356E-04
    0.92049E+02    0.68637E-01    0.78657E-04
    0.94537E+02    0.59085E-01    0.84848E-04
    0.97024E+02    0.48524E-01   -0.11091E-05
    0.99512E+02    0.34281E-01   -0.87831E-04
    0.10200E+03    0.70112E-02   -0.54855E-03
zone i=     42,T= "1dxhc;t= 0.6000E+03y,z:   1   1"
    0.00000E+00    0.50000E+00    0.00000E+00
    0.24878E+01    0.49569E+00    0.13940E-14
    0.49756E+01    0.49034E+00    0.48381E-14
    0.74634E+01    0.48538E+00    0.18335E-13
    0.99512E+01    0.48094E+00    0.64479E-13
    0.12439E+02    0.47808E+00    0.17973E-12
    0.14927E+02    0.47301E+00    0.37090E-12
    0.17415E+02    0.46851E+00    0.89447E-12
    0.19902E+02    0.46610E+00    0.25059E-11
    0.22390E+02    0.46213E+00    0.57888E-11
    0.24878E+02    0.45853E+00    0.17089E-10
    0.27366E+02    0.45397E+00    0.68032E-10
    0.29854E+02    0.44692E+00    0.27227E-09
    0.32341E+02    0.43795E+00    0.84237E-09
    0.34829E+02    0.42909E+00    0.25990E-08
    0.37317E+02    0.42358E+00    0.59679E-08
    0.39805E+02    0.41678E+00    0.18498E-07
    0.42293E+02    0.41318E+00    0.31766E-07
    0.44780E+02    0.40525E+00    0.59178E-07
    0.47268E+02    0.39746E+00    0.12076E-06
    0.49756E+02    0.38966E+00    0.23284E-06
    0.52244E+02    0.38535E+00    0.65234E-06
    0.54732E+02    0.38007E+00    0.13901E-05
    0.57220E+02    0.37784E+00    0.41397E-05
    0.59707E+02    0.37366E+00    0.99698E-05
    0.62195E+02    0.36845E+00    0.28310E-04
    0.64683E+02    0.36244E+00    0.83381E-04
    0.67171E+02    0.35704E+00    0.25320E-03
    0.69659E+02    0.35207E+00    0.76938E-03
    0.72146E+02    0.34695E+00    0.26569E-02
    0.74634E+02    0.34247E+00    0.88797E-02
    0.77122E+02    0.33846E+00    0.31314E-01
    0.79610E+02    0.33739E+00    0.28664E-01
    0.82098E+02    0.34529E+00    0.36037E+00
    0.84585E+02    0.35274E+00    0.55768E+00
    0.87073E+02    0.36467E+00    0.70244E+00
    0.89561E+02    0.37412E+00    0.78750E+00
    0.92049E+02    0.38127E+00    0.86033E+00
    0.94537E+02    0.38932E+00    0.91492E+00
    0.97024E+02    0.39582E+00    0.93728E+00
    0.99512E+02    0.40364E+00    0.97362E+00
    0.10200E+03    0.40013E+00    0.10000E+01
zone i=     42,T= "1dxhc;t= 0.6000E+03y,z:   1  12"
    0.00000E+00    0.50000E+00    0.00000E+00
    0.24878E+01    0.49281E+00    0.67140E-14
    0.49756E+01    0.48988E+00    0.21569E-13
    0.74634E+01    0.48512E+00    0.54352E-13
    0.99512E+01    0.48252E+00    0.10514E-12
    0.12439E+02    0.47888E+00    0.21525E-12
    0.14927E+02    0.47453E+00    0.75104E-12
    0.17415E+02    0.47124E+00    0.12132E-11
    0.19902E+02    0.46787E+00    0.10509E-11
    0.22390E+02    0.46099E+00    0.26809E-11
    0.24878E+02    0.45659E+00    0.67199E-11
    0.27366E+02    0.45287E+00    0.11206E-10
    0.29854E+02    0.44790E+00    0.23623E-10
    0.32341E+02    0.44070E+00    0.33265E-10
    0.34829E+02    0.43205E+00    0.23550E-10
    0.37317E+02    0.42222E+00    0.31951E-10
    0.39805E+02    0.41647E+00    0.50019E-10
    0.42293E+02    0.41050E+00    0.50784E-10
    0.44780E+02    0.40591E+00   -0.86598E-10
    0.47268E+02    0.40241E+00   -0.27255E-09
    0.49756E+02    0.39690E+00   -0.80942E-09
    0.52244E+02    0.39040E+00   -0.16038E-08
    0.54732E+02    0.38366E+00   -0.39446E-08
    0.57220E+02    0.37683E+00   -0.11715E-07
    0.59707E+02    0.37113E+00   -0.39524E-07
    0.62195E+02    0.36500E+00   -0.13850E-06
    0.64683E+02    0.35986E+00   -0.50958E-06
    0.67171E+02    0.35541E+00   -0.83795E-06
    0.69659E+02    0.34930E+00   -0.21123E-05
    0.72146E+02    0.34426E+00   -0.81227E-05
    0.74634E+02    0.33835E+00   -0.23216E-04
    0.77122E+02    0.33020E+00   -0.24103E-04
    0.79610E+02    0.32004E+00    0.62213E-04
    0.82098E+02    0.30697E+00    0.81506E-03
    0.84585E+02    0.29420E+00    0.28030E-02
    0.87073E+02    0.27660E+00    0.87307E-02
    0.89561E+02    0.26380E+00    0.25391E-01
    0.92049E+02    0.25213E+00    0.66191E-01
    0.94537E+02    0.23943E+00    0.13299E+00
    0.97024E+02    0.21894E+00    0.25286E+00
    0.99512E+02    0.18936E+00    0.53925E+00
    0.10200E+03    0.16005E+00    0.10000E+01
zone i=     42,T= "1dxhc;t= 0.6000E+03y,z:   1  22"
    0.00000E+00    0.49941E+00   -0.76056E-12
    0.24878E+01    0.49772E+00   -0.54213E-12
    0.49756E+01    0.49420E+00   -0.10853E-11
    0.74634E+01    0.48845E+00   -0.15234E-11
    0.99512E+01    0.48238E+00   -0.19166E-11
    0.12439E+02    0.47846E+00   -0.19289E-11
    0.14927E+02    0.46913E+00   -0.28317E-11
    0.17415E+02    0.46141E+00   -0.52218E-11
    0.19902E+02    0.45327E+00   -0.90199E-11
    0.22390E+02    0.44226E+00   -0.28479E-10
    0.24878E+02    0.43447E+00   -0.91018E-10
    0.27366E+02    0.42770E+00   -0.19938E-09
    0.29854E+02    0.42222E+00   -0.45637E-09
    0.32341E+02    0.41985E+00   -0.83065E-09
    0.34829E+02    0.41347E+00   -0.17728E-08
    0.37317E+02    0.40672E+00   -0.36966E-08
    0.39805E+02    0.39974E+00   -0.57772E-08
    0.42293E+02    0.38569E+00   -0.12502E-07
    0.44780E+02    0.37672E+00   -0.15758E-07
    0.47268E+02    0.35678E+00   -0.32661E-07
    0.49756E+02    0.32306E+00   -0.58142E-07
    0.52244E+02    0.30063E+00   -0.87816E-07
    0.54732E+02    0.28382E+00   -0.14812E-06
    0.57220E+02    0.26241E+00   -0.29932E-06
    0.59707E+02    0.24633E+00   -0.74539E-06
    0.62195E+02    0.23302E+00   -0.13270E-05
    0.64683E+02    0.22726E+00   -0.67638E-06
    0.67171E+02    0.22133E+00   -0.88227E-06
    0.69659E+02    0.21639E+00    0.10269E-05
    0.72146E+02    0.20413E+00    0.50547E-06
    0.74634E+02    0.19745E+00    0.11803E-05
    0.77122E+02    0.18096E+00    0.28337E-05
    0.79610E+02    0.15128E+00    0.83248E-05
    0.82098E+02    0.13488E+00    0.14239E-04
    0.84585E+02    0.11570E+00    0.32060E-04
    0.87073E+02    0.10126E+00    0.54420E-04
    0.89561E+02    0.83180E-01    0.85885E-04
    0.92049E+02    0.68631E-01    0.82904E-04
    0.94537E+02    0.59090E-01    0.93744E-04
    0.97024E+02    0.48543E-01    0.71381E-05
    0.99512E+02    0.34306E-01   -0.95414E-04
    0.10200E+03    0.70176E-02   -0.55910E-03
zone i=     42,T= "1dxhc;t= 0.7500E+03y,z:   1   1"
    0.00000E+00    0.50000E+00    0.00000E+00
    0.24878E+01    0.49571E+00    0.16218E-13
    0.49756E+01    0.49037E+00    0.54681E-13
    0.74634E+01    0.48542E+00    0.19034E-12
    0.99512E+01    0.48100E+00    0.61011E-12
    0.12439E+02    0.47815E+00    0.15959E-11
    0.14927E+02    0.47309E+00    0.32171E-11
    0.17415E+02    0.46860E+00    0.77032E-11
    0.19902E+02    0.46620E+00    0.20196E-10
    0.22390E+02    0.46224E+00    0.44441E-10
    0.24878E+02    0.45866E+00    0.12186E-09
    0.27366E+02    0.45411E+00    0.43173E-09
    0.29854E+02    0.44708E+00    0.15398E-08
    0.32341E+02    0.43815E+00    0.43046E-08
    0.34829E+02    0.42933E+00    0.12264E-07
    0.37317E+02    0.42383E+00    0.26458E-07
    0.39805E+02    0.41706E+00    0.76782E-07
    0.42293E+02    0.41348E+00    0.12659E-06
    0.44780E+02    0.40559E+00    0.23012E-06
    0.47268E+02    0.39783E+00    0.45548E-06
    0.49756E+02    0.39007E+00    0.86365E-06
    0.52244E+02    0.38577E+00    0.23220E-05
    0.54732E+02    0.38052E+00    0.49043E-05
    0.57220E+02    0.37830E+00    0.13638E-04
    0.59707E+02    0.37415E+00    0.31793E-04
    0.62195E+02    0.36898E+00    0.84413E-04
    0.64683E+02    0.36301E+00    0.23477E-03
    0.67171E+02    0.35768E+00    0.65430E-03
    0.69659E+02    0.35281E+00    0.17557E-02
    0.72146E+02    0.34792E+00    0.53671E-02
    0.74634E+02    0.34382E+00    0.15003E-01
    0.77122E+02    0.34143E+00    0.22466E-01
    0.79610E+02    0.34354E+00    0.21003E+00
    0.82098E+02    0.35255E+00    0.47193E+00
    0.84585E+02    0.35965E+00    0.62924E+00
    0.87073E+02    0.37073E+00    0.76712E+00
    0.89561E+02    0.37909E+00    0.82981E+00
    0.92049E+02    0.38530E+00    0.88650E+00
    0.94537E+02    0.39222E+00    0.92952E+00
    0.97024E+02    0.39779E+00    0.94591E+00
    0.99512E+02    0.40469E+00    0.97961E+00
    0.10200E+03    0.40013E+00    0.10000E+01
zone i=     42,T= "1dxhc;t= 0.7500E+03y,z:   1  12"
    0.00000E+00    0.50000E+00    0.00000E+00
    0.24878E+01    0.49283E+00    0.36437E-13
    0.49756E+01    0.48991E+00    0.10924E-12
    0.74634E+01    0.48516E+00    0.25793E-12
    0.99512E+01    0.48257E+00    0.47111E-12
    0.12439E+02    0.47894E+00    0.91469E-12
    0.14927E+02    0.47460E+00    0.27806E-11
    0.17415E+02    0.47132E+00    0.42569E-11
    0.19902E+02    0.46797E+00    0.38244E-11
    0.22390E+02    0.46111E+00    0.88811E-11
    0.24878E+02    0.45672E+00    0.20374E-10
    0.27366E+02    0.45302E+00    0.33048E-10
    0.29854E+02    0.44807E+00    0.65763E-10
    0.32341E+02    0.44089E+00    0.92510E-10
    0.34829E+02    0.43227E+00    0.79492E-10
    0.37317E+02    0.42248E+00    0.10196E-09
    0.39805E+02    0.41675E+00    0.15088E-09
    0.42293E+02    0.41081E+00    0.12955E-09
    0.44780E+02    0.40624E+00   -0.26893E-09
    0.47268E+02    0.40275E+00   -0.87919E-09
    0.49756E+02    0.39726E+00   -0.24644E-08
    0.52244E+02    0.39079E+00   -0.47195E-08
    0.54732E+02    0.38408E+00   -0.10845E-07
    0.57220E+02    0.37728E+00   -0.29589E-07
    0.59707E+02    0.37160E+00   -0.92008E-07
    0.62195E+02    0.36548E+00   -0.31155E-06
    0.64683E+02    0.36034E+00   -0.10795E-05
    0.67171E+02    0.35588E+00   -0.19108E-05
    0.69659E+02    0.34972E+00   -0.44695E-05
    0.72146E+02    0.34457E+00   -0.16409E-04
    0.74634E+02    0.33846E+00   -0.42538E-04
    0.77122E+02    0.32991E+00   -0.30205E-04
    0.79610E+02    0.31913E+00    0.14582E-03
    0.82098E+02    0.30525E+00    0.13148E-02
    0.84585E+02    0.29190E+00    0.38790E-02
    0.87073E+02    0.27389E+00    0.10829E-01
    0.89561E+02    0.26108E+00    0.28421E-01
    0.92049E+02    0.24957E+00    0.69904E-01
    0.94537E+02    0.23715E+00    0.13635E+00
    0.97024E+02    0.21720E+00    0.25509E+00
    0.99512E+02    0.18847E+00    0.54017E+00
    0.10200E+03    0.16005E+00    0.10000E+01
zone i=     42,T= "1dxhc;t= 0.7500E+03y,z:   1  22"
    0.00000E+00    0.49941E+00   -0.22661E-11
    0.24878E+01    0.49772E+00   -0.16450E-11
    0.49756E+01    0.49420E+00   -0.34887E-11
    0.74634E+01    0.48845E+00   -0.51224E-11
    0.99512E+01    0.48238E+00   -0.68530E-11
    0.12439E+02    0.47846E+00   -0.76122E-11
    0.14927E+02    0.46914E+00   -0.12272E-10
    0.17415E+02    0.46141E+00   -0.22758E-10
    0.19902E+02    0.45327E+00   -0.38848E-10
    0.22390E+02    0.44227E+00   -0.11346E-09
    0.24878E+02    0.43448E+00   -0.31650E-09
    0.27366E+02    0.42770E+00   -0.60678E-09
    0.29854E+02    0.42223E+00   -0.12648E-08
    0.32341E+02    0.41985E+00   -0.21727E-08
    0.34829E+02    0.41347E+00   -0.43987E-08
    0.37317E+02    0.40673E+00   -0.85692E-08
    0.39805E+02    0.39975E+00   -0.12870E-07
    0.42293E+02    0.38569E+00   -0.26808E-07
    0.44780E+02    0.37673E+00   -0.34057E-07
    0.47268E+02    0.35678E+00   -0.67073E-07
    0.49756E+02    0.32306E+00   -0.11477E-06
    0.52244E+02    0.30062E+00   -0.16950E-06
    0.54732E+02    0.28381E+00   -0.27619E-06
    0.57220E+02    0.26239E+00   -0.53380E-06
    0.59707E+02    0.24632E+00   -0.12222E-05
    0.62195E+02    0.23301E+00   -0.19945E-05
    0.64683E+02    0.22724E+00   -0.11320E-05
    0.67171E+02    0.22131E+00   -0.14355E-05
    0.69659E+02    0.21637E+00    0.13425E-05
    0.72146E+02    0.20410E+00    0.10287E-05
    0.74634E+02    0.19742E+00    0.21444E-05
    0.77122E+02    0.18093E+00    0.48519E-05
    0.79610E+02    0.15124E+00    0.12278E-04
    0.82098E+02    0.13485E+00    0.19096E-04
    0.84585E+02    0.11566E+00    0.38465E-04
    0.87073E+02    0.10123E+00    0.60057E-04
    0.89561E+02    0.83160E-01    0.90018E-04
    0.92049E+02    0.68621E-01    0.85413E-04
    0.94537E+02    0.59090E-01    0.95441E-04
    0.97024E+02    0.48556E-01    0.52989E-05
    0.99512E+02    0.34325E-01   -0.11673E-03
    0.10200E+03    0.70223E-02   -0.61230E-03
zone i=     42,T= "1dxhc;t= 0.9000E+03y,z:   1   1"
    0.00000E+00    0.50000E+00    0.00000E+00
    0.24878E+01    0.49572E+00    0.10926E-12
    0.49756E+01    0.49039E+00    0.36001E-12