          Title="3D head and conc at t=   0.2500E+04 days"
          variables="x","y","z","head","conc"
          zone i=      22, j=      42, k=      42, T="3D"
  0.00000000E+00  0.00000000E+00  0.00000000E+00  0.50000000E+00  0.00000000E+00
  0.00000000E+00  0.00000000E+00  0.97616254E+00  0.50000000E+00  0.00000000E+00
  0.00000000E+00  0.00000000E+00  0.19523251E+01  0.50000000E+00  0.00000000E+00
  0.00000000E+00  0.00000000E+00  0.29284876E+01  0.50000000E+00  0.00000000E+00
  0.00000000E+00  0.00000000E+00  0.39046502E+01  0.50000000E+00  0.00000000E+00
  0.00000000E+00  0.00000000E+00  0.48808127E+01  0.50000000E+00  0.00000000E+00
  0.00000000E+00  0.00000000E+00  0.58569753E+01  0.50000000E+00  0.00000000E+00
  0.00000000E+00  0.00000000E+00  0.68331378E+01  0.50000000E+00  0.00000000E+00
  0.00000000E+00  0.00000000E+00  0.78093004E+01  0.50000000E+00  0.00000000E+00
  0.00000000E+00  0.00000000E+00  0.87854629E+01  0.50000000E+00  0.00000000E+00
  0.00000000E+00  0.00000000E+00  0.97616254E+01  0.50000000E+00  0.00000000E+00
  0.00000000E+00  0.00000000E+00  0.10737788E+02  0.50000000E+00  0.00000000E+00
  0.00000000E+00  0.00000000E+00  0.11713951E+02  0.50000000E+00  0.00000000E+00
  0.00000000E+00  0.00000000E+00  0.12690113E+02  0.50000000E+00  0.00000000E+00
  0.00000000E+00  0.00000000E+00  0.13666276E+02  0.50000000E+00  0.00000000E+00
  0.00000000E+00  0.00000000E+00  0.14642438E+02  0.50000000E+00  0.00000000E+00
  0.00000000E+00  0.00000000E+00  0.15618601E+02  0.50000000E+00  0.00000000E+00
  0.00000000E+00  0.00000000E+00  0.16594763E+02  0.50000000E+00  0.00000000E+00
  0.00000000E+00  0.00000000E+00  0.17570926E+02  0.50000000E+00  0.00000000E+00
  0.00000000E+00  0.00000000E+00  0.18547088E+02  0.50000000E+00  0.00000000E+00
  0.00000000E+00  0.00000000E+00  0.19523251E+02  0.50000000E+00  0.00000000E+00
  0.00000000E+00  0.00000000E+00  0.20499413E+02  0.49941177E+00 -0.59926780E-10
  0.00000000E+00  0.24878049E+01  0.00000000E+00  0.50000000E+00  0.00000000E+00
  0.00000000E+00  0.24878049E+01  0.97615945E+00  0.50000000E+00  0.00000000E+00
  0.00000000E+00  0.24878049E+01  0.19523189E+01  0.50000000E+00  0.00000000E+00
  0.00000000E+00  0.24878049E+01  0.29284784E+01  0.50000000E+00  0.00000000E+00
  0.00000000E+00  0.24878049E+01  0.39046378E+01  0.50000000E+00  0.00000000E+00
  0.00000000E+00  0.24878049E+01  0.48807973E+01  0.50000000E+00  0.00000000E+00
  0.00000000E+00  0.24878049E+01  0.58569567E+01  0.50000000E+00  0.00000000E+00
  0.00000000E+00  0.24878049E+01  0.68331162E+01  0.50000000E+00  0.00000000E+00
  0.00000000E+00  0.24878049E+01  0.78092756E+01  0.50000000E+00  0.00000000E+00
  0.00000000E+00  0.24878049E+01  0.87854351E+01  0.50000000E+00  0.00000000E+00
  0.00000000E+00  0.24878049E+01  0.97615945E+01  0.50000000E+00  0.00000000E+00
  0.00000000E+00  0.24878049E+01  0.10737754E+02  0.50000000E+00  0.00000000E+00
  0.00000000E+00  0.24878049E+01  0.11713913E+02  0.50000000E+00  0.00000000E+00
  0.00000000E+00  0.24878049E+01  0.12690073E+02  0.50000000E+00  0.00000000E+00
  0.00000000E+00  0.24878049E+01  0.13666232E+02  0.50000000E+00  0.00000000E+00
  0.00000000E+00  0.24878049E+01  0.14642392E+02  0.50000000E+00  0.00000000E+00
  0.00000000E+00  0.24878049E+01  0.15618551E+02  0.50000000E+00  0.00000000E+00
  0.00000000E+00  0.24878049E+01  0.16594711E+02  0.50000000E+00  0.00000000E+00
  0.00000000E+00  0.24878049E+01  0.17570870E+02  0.50000000E+00  0.00000000E+00
  0.00000000E+00  0.24878049E+01  0.18547030E+02  0.50000000E+00  0.00000000E+00
  0.00000000E+00  0.24878049E+01  0.19523189E+02  0.50000000E+00  0.00000000E+00
  0.00000000E+00  0.24878049E+01  0.20499349E+02  0.49934668E+00 -0.62984324E-10
  0.00000000E+00  0.49756098E+01  0.00000000E+00  0.50000000E+00  0.00000000E+00
  0.00000000E+00  0.49756098E+01  0.97615671E+00  0.50000000E+00  0.00000000E+00
  0.00000000E+00  0.49756098E+01  0.19523134E+01  0.50000000E+00  0.00000000E+00
  0.00000000E+00  0.49756098E+01  0.29284701E+01  0.50000000E+00  0.00000000E+00
  0.00000000E+00  0.49756098E+01  0.39046268E+01  0.50000000E+00  0.00000000E+00
  0.00000000E+00  0.49756098E+01  0.48807835E+01  0.50000000E+00  0.00000000E+00
  0.00000000E+00  0.49756098E+01  0.58569403E+01  0.50000000E+00  0.00000000E+00
  0.00000000E+00  0.49756098E+01  0.68330970E+01  0.50000000E+00  0.00000000E+00
  0.00000000E+00  0.49756098E+01  0.78092537E+01  0.50000000E+00  0.00000000E+00
  0.00000000E+00  0.49756098E+01  0.87854104E+01  0.50000000E+00  0.00000000E+00
  0.00000000E+00  0.49756098E+01  0.97615671E+01  0.50000000E+00  0.00000000E+00
  0.00000000E+00  0.49756098E+01  0.10737724E+02  0.50000000E+00  0.00000000E+00
  0.00000000E+00  0.49756098E+01  0.11713881E+02  0.50000000E+00  0.00000000E+00
  0.00000000E+00  0.49756098E+01  0.12690037E+02  0.50000000E+00  0.00000000E+00
  0.00000000E+00  0.49756098E+01  0.13666194E+02  0.50000000E+00  0.00000000E+00
  0.00000000E+00  0.49756098E+01  0.14642351E+02  0.50000000E+00  0.00000000E+00
  0.00000000E+00  0.49756098E+01  0.15618507E+02  0.50000000E+00  0.00000000E+00
  0.00000000E+00  0.49756098E+01  0.16594664E+02  0.50000000E+00  0.00000000E+00
  0.00000000E+00  0.49756098E+01  0.17570821E+02  0.50000000E+00  0.00000000E+00
  0.00000000E+00  0.49756098E+01  0.18546977E+02  0.50000000E+00  0.00000000E+00
  0.00000000E+00  0.49756098E+01  0.19523134E+02  0.50000000E+00  0.00000000E+00
  0.00000000E+00  0.49756098E+01  0.20499291E+02  0.49928890E+00 -0.80290358E-10
  0.00000000E+00  0.74634146E+01  0.00000000E+00  0.50000000E+00  0.00000000E+00
  0.00000000E+00  0.74634146E+01  0.97615729E+00  0.50000000E+00  0.00000000E+00
  0.00000000E+00  0.74634146E+01  0.19523146E+01  0.50000000E+00  0.00000000E+00
  0.00000000E+00  0.74634146E+01  0.29284719E+01  0.50000000E+00  0.00000000E+00
  0.00000000E+00  0.74634146E+01  0.39046292E+01  0.50000000E+00  0.00000000E+00
  0.00000000E+00  0.74634146E+01  0.48807865E+01  0.50000000E+00  0.00000000E+00
  0.00000000E+00  0.74634146E+01  0.58569437E+01  0.50000000E+00  0.00000000E+00
  0.00000000E+00  0.74634146E+01  0.68331010E+01  0.50000000E+00  0.00000000E+00
  0.00000000E+00  0.74634146E+01  0.78092583E+01  0.50000000E+00  0.00000000E+00
  0.00000000E+00  0.74634146E+01  0.87854156E+01  0.50000000E+00  0.00000000E+00
  0.00000000E+00  0.74634146E+01  0.97615729E+01  0.50000000E+00  0.00000000E+00
  0.00000000E+00  0.74634146E+01  0.10737730E+02  0.50000000E+00  0.00000000E+00
  0.00000000E+00  0.74634146E+01  0.11713887E+02  0.50000000E+00  0.00000000E+00
  0.00000000E+00  0.74634146E+01  0.12690045E+02  0.50000000E+00  0.00000000E+00
  0.00000000E+00  0.74634146E+01  0.13666202E+02  0.50000000E+00  0.00000000E+00
  0.00000000E+00  0.74634146E+01  0.14642359E+02  0.50000000E+00  0.00000000E+00
  0.00000000E+00  0.74634146E+01  0.15618517E+02  0.50000000E+00  0.00000000E+00
  0.00000000E+00  0.74634146E+01  0.16594674E+02  0.50000000E+00  0.00000000E+00
  0.00000000E+00  0.74634146E+01  0.17570831E+02  0.50000000E+00  0.00000000E+00
  0.00000000E+00  0.74634146E+01  0.18546989E+02  0.50000000E+00  0.00000000E+00
  0.00000000E+00  0.74634146E+01  0.19523146E+02  0.50000000E+00  0.00000000E+00
  0.00000000E+00  0.74634146E+01  0.20499303E+02  0.49930101E+00 -0.11986224E-09
  0.00000000E+00  0.99512195E+01  0.00000000E+00  0.50000000E+00  0.00000000E+00
  0.00000000E+00  0.99512195E+01  0.97615020E+00  0.50000000E+00  0.00000000E+00
  0.00000000E+00  0.99512195E+01  0.19523004E+01  0.50000000E+00  0.00000000E+00
  0.00000000E+00  0.99512195E+01  0.29284506E+01  0.50000000E+00  0.00000000E+00
  0.00000000E+00  0.99512195E+01  0.39046008E+01  0.50000000E+00  0.00000000E+00
  0.00000000E+00  0.99512195E+01  0.48807510E+01  0.50000000E+00  0.00000000E+00
  0.00000000E+00  0.99512195E+01  0.58569012E+01  0.50000000E+00  0.00000000E+00
  0.00000000E+00  0.99512195E+01  0.68330514E+01  0.50000000E+00  0.00000000E+00
  0.00000000E+00  0.99512195E+01  0.78092016E+01  0.50000000E+00  0.00000000E+00
  0.00000000E+00  0.99512195E+01  0.87853518E+01  0.50000000E+00  0.00000000E+00
  0.00000000E+00  0.99512195E+01  0.97615020E+01  0.50000000E+00  0.00000000E+00
  0.00000000E+00  0.99512195E+01  0.10737652E+02  0.50000000E+00  0.00000000E+00
  0.00000000E+00  0.99512195E+01  0.11713802E+02  0.50000000E+00  0.00000000E+00
  0.00000000E+00  0.99512195E+01  0.12689953E+02  0.50000000E+00  0.00000000E+00
  0.00000000E+00  0.99512195E+01  0.13666103E+02  0.50000000E+00  0.00000000E+00
  0.00000000E+00  0.99512195E+01  0.14642253E+02  0.50000000E+00  0.00000000E+00
  0.00000000E+00  0.99512195E+01  0.15618403E+02  0.50000000E+00  0.00000000E+00
  0.00000000E+00  0.99512195E+01  0.16594553E+02  0.50000000E+00  0.00000000E+00
  0.00000000E+00  0.99512195E+01  0.17570704E+02  0.50000000E+00  0.00000000E+00
  0.00000000E+00  0.99512195E+01  0.18546854E+02  0.50000000E+00  0.00000000E+00
  0.00000000E+00  0.99512195E+01  0.19523004E+02  0.50000000E+00  0.00000000E+00
  0.00000000E+00  0.99512195E+01  0.20499154E+02  0.49915150E+00 -0.23726396E-09
  0.00000000E+00  0.12439024E+02  0.00000000E+00  0.50000000E+00  0.00000000E+00
  0.00000000E+00  0.12439024E+02  0.97613825E+00  0.50000000E+00  0.00000000E+00
  0.00000000E+00  0.12439024E+02  0.19522765E+01  0.50000000E+00  0.00000000E+00
  0.00000000E+00  0.12439024E+02  0.29284148E+01  0.50000000E+00  0.00000000E+00
  0.00000000E+00  0.12439024E+02  0.39045530E+01  0.50000000E+00  0.00000000E+00
  0.00000000E+00  0.12439024E+02  0.48806913E+01  0.50000000E+00  0.00000000E+00
  0.00000000E+00  0.12439024E+02  0.58568295E+01  0.50000000E+00  0.00000000E+00
  0.00000000E+00  0.12439024E+02  0.68329678E+01  0.50000000E+00  0.00000000E+00
  0.00000000E+00  0.12439024E+02  0.78091060E+01  0.50000000E+00  0.00000000E+00
  0.00000000E+00  0.12439024E+02  0.87852443E+01  0.50000000E+00  0.00000000E+00
  0.00000000E+00  0.12439024E+02  0.97613825E+01  0.50000000E+00  0.00000000E+00
  0.00000000E+00  0.12439024E+02  0.10737521E+02  0.50000000E+00  0.00000000E+00
  0.00000000E+00  0.12439024E+02  0.11713659E+02  0.50000000E+00  0.00000000E+00
  0.00000000E+00  0.12439024E+02  0.12689797E+02  0.50000000E+00  0.00000000E+00
  0.00000000E+00  0.12439024E+02  0.13665936E+02  0.50000000E+00  0.00000000E+00
  0.00000000E+00  0.12439024E+02  0.14642074E+02  0.50000000E+00  0.00000000E+00
  0.00000000E+00  0.12439024E+02  0.15618212E+02  0.50000000E+00  0.00000000E+00
  0.00000000E+00  0.12439024E+02  0.16594350E+02  0.50000000E+00  0.00000000E+00
  0.00000000E+00  0.12439024E+02  0.17570489E+02  0.50000000E+00  0.00000000E+00
  0.00000000E+00  0.12439024E+02  0.18546627E+02  0.50000000E+00  0.00000000E+00
  0.00000000E+00  0.12439024E+02  0.19522765E+02  0.50000000E+00  0.00000000E+00
  0.00000000E+00  0.12439024E+02  0.20498903E+02  0.49889991E+00 -0.35638160E-09
  0.00000000E+00  0.14926829E+02  0.00000000E+00  0.50000000E+00  0.00000000E+00
  0.00000000E+00  0.14926829E+02  0.97612569E+00  0.50000000E+00  0.00000000E+00
  0.00000000E+00  0.14926829E+02  0.19522514E+01  0.50000000E+00  0.00000000E+00
  0.00000000E+00  0.14926829E+02  0.29283771E+01  0.50000000E+00  0.00000000E+00
  0.00000000E+00  0.14926829E+02  0.39045027E+01  0.50000000E+00  0.00000000E+00
  0.00000000E+00  0.14926829E+02  0.48806284E+01  0.50000000E+00  0.00000000E+00
  0.00000000E+00  0.14926829E+02  0.58567541E+01  0.50000000E+00  0.00000000E+00
  0.00000000E+00  0.14926829E+02  0.68328798E+01  0.50000000E+00  0.00000000E+00
  0.00000000E+00  0.14926829E+02  0.78090055E+01  0.50000000E+00  0.00000000E+00
  0.00000000E+00  0.14926829E+02  0.87851312E+01  0.50000000E+00  0.00000000E+00
  0.00000000E+00  0.14926829E+02  0.97612569E+01  0.50000000E+00  0.00000000E+00
  0.00000000E+00  0.14926829E+02  0.10737383E+02  0.50000000E+00  0.00000000E+00
  0.00000000E+00  0.14926829E+02  0.11713508E+02  0.50000000E+00  0.00000000E+00
  0.00000000E+00  0.14926829E+02  0.12689634E+02  0.50000000E+00  0.00000000E+00
  0.00000000E+00  0.14926829E+02  0.13665760E+02  0.50000000E+00  0.00000000E+00
  0.00000000E+00  0.14926829E+02  0.14641885E+02  0.50000000E+00  0.00000000E+00
  0.00000000E+00  0.14926829E+02  0.15618011E+02  0.50000000E+00  0.00000000E+00
  0.00000000E+00  0.14926829E+02  0.16594137E+02  0.50000000E+00  0.00000000E+00
  0.00000000E+00  0.14926829E+02  0.17570262E+02  0.50000000E+00  0.00000000E+00
  0.00000000E+00  0.14926829E+02  0.18546388E+02  0.50000000E+00  0.00000000E+00
  0.00000000E+00  0.14926829E+02  0.19522514E+02  0.50000000E+00  0.00000000E+00
  0.00000000E+00  0.14926829E+02  0.20498639E+02  0.49863521E+00 -0.38460038E-09
  0.00000000E+00  0.17414634E+02  0.00000000E+00  0.50000000E+00  0.00000000E+00
  0.00000000E+00  0.17414634E+02  0.97612095E+00  0.50000000E+00  0.00000000E+00
  0.00000000E+00  0.17414634E+02  0.19522419E+01  0.50000000E+00  0.00000000E+00
  0.00000000E+00  0.17414634E+02  0.29283629E+01  0.50000000E+00  0.00000000E+00
  0.00000000E+00  0.17414634E+02  0.39044838E+01  0.50000000E+00  0.00000000E+00
  0.00000000E+00  0.17414634E+02  0.48806048E+01  0.50000000E+00  0.00000000E+00
  0.00000000E+00  0.17414634E+02  0.58567257E+01  0.50000000E+00  0.00000000E+00
  0.00000000E+00  0.17414634E+02  0.68328467E+01  0.50000000E+00  0.00000000E+00
  0.00000000E+00  0.17414634E+02  0.78089676E+01  0.50000000E+00  0.00000000E+00
  0.00000000E+00  0.17414634E+02  0.87850886E+01  0.50000000E+00  0.00000000E+00
  0.00000000E+00  0.17414634E+02  0.97612095E+01  0.50000000E+00  0.00000000E+00
  0.00000000E+00  0.17414634E+02  0.10737330E+02  0.50000000E+00  0.00000000E+00
  0.00000000E+00  0.17414634E+02  0.11713451E+02  0.50000000E+00  0.00000000E+00
  0.00000000E+00  0.17414634E+02  0.12689572E+02  0.50000000E+00  0.00000000E+00
  0.00000000E+00  0.17414634E+02  0.13665693E+02  0.50000000E+00  0.00000000E+00
  0.00000000E+00  0.17414634E+02  0.14641814E+02  0.50000000E+00  0.00000000E+00
  0.00000000E+00  0.17414634E+02  0.15617935E+02  0.50000000E+00  0.00000000E+00
  0.00000000E+00  0.17414634E+02  0.16594056E+02  0.50000000E+00  0.00000000E+00
  0.00000000E+00  0.17414634E+02  0.17570177E+02  0.50000000E+00  0.00000000E+00
  0.00000000E+00  0.17414634E+02  0.18546298E+02  0.50000000E+00  0.00000000E+00
  0.00000000E+00  0.17414634E+02  0.19522419E+02  0.50000000E+00  0.00000000E+00
  0.00000000E+00  0.17414634E+02  0.20498540E+02  0.49853524E+00 -0.30792872E-09
  0.00000000E+00  0.19902439E+02  0.00000000E+00  0.50000000E+00  0.00000000E+00
  0.00000000E+00  0.19902439E+02  0.97609329E+00  0.50000000E+00  0.00000000E+00
  0.00000000E+00  0.19902439E+02  0.19521866E+01  0.50000000E+00  0.00000000E+00
  0.00000000E+00  0.19902439E+02  0.29282799E+01  0.50000000E+00  0.00000000E+00
  0.00000000E+00  0.19902439E+02  0.39043731E+01  0.50000000E+00  0.00000000E+00
  0.00000000E+00  0.19902439E+02  0.48804664E+01  0.50000000E+00  0.00000000E+00
  0.00000000E+00  0.19902439E+02  0.58565597E+01  0.50000000E+00  0.00000000E+00
  0.00000000E+00  0.19902439E+02  0.68326530E+01  0.50000000E+00  0.00000000E+00
  0.00000000E+00  0.19902439E+02  0.78087463E+01  0.50000000E+00  0.00000000E+00
  0.00000000E+00  0.19902439E+02  0.87848396E+01  0.50000000E+00  0.00000000E+00
  0.00000000E+00  0.19902439E+02  0.97609329E+01  0.50000000E+00  0.00000000E+00
  0.00000000E+00  0.19902439E+02  0.10737026E+02  0.50000000E+00  0.00000000E+00
  0.00000000E+00  0.19902439E+02  0.11713119E+02  0.50000000E+00  0.00000000E+00
  0.00000000E+00  0.19902439E+02  0.12689213E+02  0.50000000E+00  0.00000000E+00
  0.00000000E+00  0.19902439E+02  0.13665306E+02  0.50000000E+00  0.00000000E+00
  0.00000000E+00  0.19902439E+02  0.14641399E+02  0.50000000E+00  0.00000000E+00
  0.00000000E+00  0.19902439E+02  0.15617493E+02  0.50000000E+00  0.00000000E+00
  0.00000000E+00  0.19902439E+02  0.16593586E+02  0.50000000E+00  0.00000000E+00
  0.00000000E+00  0.19902439E+02  0.17569679E+02  0.50000000E+00  0.00000000E+00
  0.00000000E+00  0.19902439E+02  0.18545772E+02  0.50000000E+00  0.00000000E+00
  0.00000000E+00  0.19902439E+02  0.19521866E+02  0.50000000E+00  0.00000000E+00
  0.00000000E+00  0.19902439E+02  0.20497959E+02  0.49795317E+00 -0.21590301E-09
  0.00000000E+00  0.22390244E+02  0.00000000E+00  0.50000000E+00  0.00000000E+00
  0.00000000E+00  0.22390244E+02  0.97608370E+00  0.50000000E+00  0.00000000E+00
  0.00000000E+00  0.22390244E+02  0.19521674E+01  0.50000000E+00  0.00000000E+00
  0.00000000E+00  0.22390244E+02  0.29282511E+01  0.50000000E+00  0.00000000E+00
  0.00000000E+00  0.22390244E+02  0.39043348E+01  0.50000000E+00  0.00000000E+00
  0.00000000E+00  0.22390244E+02  0.48804185E+01  0.50000000E+00  0.00000000E+00
  0.00000000E+00  0.22390244E+02  0.58565022E+01  0.50000000E+00  0.00000000E+00
  0.00000000E+00  0.22390244E+02  0.68325859E+01  0.50000000E+00  0.00000000E+00
  0.00000000E+00  0.22390244E+02  0.78086696E+01  0.50000000E+00  0.00000000E+00
  0.00000000E+00  0.22390244E+02  0.87847533E+01  0.50000000E+00  0.00000000E+00
  0.00000000E+00  0.22390244E+02  0.97608370E+01  0.50000000E+00  0.00000000E+00
  0.00000000E+00  0.22390244E+02  0.10736921E+02  0.50000000E+00  0.00000000E+00
  0.00000000E+00  0.22390244E+02  0.11713004E+02  0.50000000E+00  0.00000000E+00
  0.00000000E+00  0.22390244E+02  0.12689088E+02  0.50000000E+00  0.00000000E+00
  0.00000000E+00  0.22390244E+02  0.13665172E+02  0.50000000E+00  0.00000000E+00
  0.00000000E+00  0.22390244E+02  0.14641256E+02  0.50000000E+00  0.00000000E+00
  0.00000000E+00  0.22390244E+02  0.15617339E+02  0.50000000E+00  0.00000000E+00
  0.00000000E+00  0.22390244E+02  0.16593423E+02  0.50000000E+00  0.00000000E+00
  0.00000000E+00  0.22390244E+02  0.17569507E+02  0.50000000E+00  0.00000000E+00
  0.00000000E+00  0.22390244E+02  0.18545590E+02  0.50000000E+00  0.00000000E+00
  0.00000000E+00  0.22390244E+02  0.19521674E+02  0.50000000E+00  0.00000000E+00
  0.00000000E+00  0.22390244E+02  0.20497758E+02  0.49775156E+00 -0.15881946E-09
  0.00000000E+00  0.24878049E+02  0.00000000E+00  0.50000000E+00  0.00000000E+00
  0.00000000E+00  0.24878049E+02  0.97609672E+00  0.50000000E+00  0.00000000E+00
  0.00000000E+00  0.24878049E+02  0.19521934E+01  0.50000000E+00  0.00000000E+00
  0.00000000E+00  0.24878049E+02  0.29282902E+01  0.50000000E+00  0.00000000E+00
  0.00000000E+00  0.24878049E+02  0.39043869E+01  0.50000000E+00  0.00000000E+00
  0.00000000E+00  0.24878049E+02  0.48804836E+01  0.50000000E+00  0.00000000E+00
  0.00000000E+00  0.24878049E+02  0.58565803E+01  0.50000000E+00  0.00000000E+00
  0.00000000E+00  0.24878049E+02  0.68326771E+01  0.50000000E+00  0.00000000E+00
  0.00000000E+00  0.24878049E+02  0.78087738E+01  0.50000000E+00  0.00000000E+00
  0.00000000E+00  0.24878049E+02  0.87848705E+01  0.50000000E+00  0.00000000E+00
  0.00000000E+00  0.24878049E+02  0.97609672E+01  0.50000000E+00  0.00000000E+00
  0.00000000E+00  0.24878049E+02  0.10737064E+02  0.50000000E+00  0.00000000E+00
  0.00000000E+00  0.24878049E+02  0.11713161E+02  0.50000000E+00  0.00000000E+00
  0.00000000E+00  0.24878049E+02  0.12689257E+02  0.50000000E+00  0.00000000E+00
  0.00000000E+00  0.24878049E+02  0.13665354E+02  0.50000000E+00  0.00000000E+00
  0.00000000E+00  0.24878049E+02  0.14641451E+02  0.50000000E+00  0.00000000E+00
  0.00000000E+00  0.24878049E+02  0.15617548E+02  0.50000000E+00  0.00000000E+00
  0.00000000E+00  0.24878049E+02  0.16593644E+02  0.50000000E+00  0.00000000E+00
  0.00000000E+00  0.24878049E+02  0.17569741E+02  0.50000000E+00  0.00000000E+00
  0.00000000E+00  0.24878049E+02  0.18545838E+02  0.50000000E+00  0.00000000E+00
  0.00000000E+00  0.24878049E+02  0.19521934E+02  0.50000000E+00  0.00000000E+00
  0.00000000E+00  0.24878049E+02  0.20498031E+02  0.49802571E+00 -0.11623215E-09
  0.00000000E+00  0.27365854E+02  0.00000000E+00  0.50000000E+00  0.00000000E+00
  0.00000000E+00  0.27365854E+02  0.97609840E+00  0.50000000E+00  0.00000000E+00
  0.00000000E+00  0.27365854E+02  0.19521968E+01  0.50000000E+00  0.00000000E+00
  0.00000000E+00  0.27365854E+02  0.29282952E+01  0.50000000E+00  0.00000000E+00
  0.00000000E+00  0.27365854E+02  0.39043936E+01  0.50000000E+00  0.00000000E+00
  0.00000000E+00  0.27365854E+02  0.48804920E+01  0.50000000E+00  0.00000000E+00
  0.00000000E+00  0.27365854E+02  0.58565904E+01  0.50000000E+00  0.00000000E+00
  0.00000000E+00  0.27365854E+02  0.68326888E+01  0.50000000E+00  0.00000000E+00
  0.00000000E+00  0.27365854E+02  0.78087872E+01  0.50000000E+00  0.00000000E+00
  0.00000000E+00  0.27365854E+02  0.87848856E+01  0.50000000E+00  0.00000000E+00
  0.00000000E+00  0.27365854E+02  0.97609840E+01  0.50000000E+00  0.00000000E+00
  0.00000000E+00  0.27365854E+02  0.10737082E+02  0.50000000E+00  0.00000000E+00
  0.00000000E+00  0.27365854E+02  0.11713181E+02  0.50000000E+00  0.00000000E+00
  0.00000000E+00  0.27365854E+02  0.12689279E+02  0.50000000E+00  0.00000000E+00
  0.00000000E+00  0.27365854E+02  0.13665378E+02  0.50000000E+00  0.00000000E+00
  0.00000000E+00  0.27365854E+02  0.14641476E+02  0.50000000E+00  0.00000000E+00
  0.00000000E+00  0.27365854E+02  0.15617574E+02  0.50000000E+00  0.00000000E+00
  0.00000000E+00  0.27365854E+02  0.16593673E+02  0.50000000E+00  0.00000000E+00
  0.00000000E+00  0.27365854E+02  0.17569771E+02  0.50000000E+00  0.00000000E+00
  0.00000000E+00  0.27365854E+02  0.18545870E+02  0.50000000E+00  0.00000000E+00
  0.00000000E+00  0.27365854E+02  0.19521968E+02  0.50000000E+00  0.00000000E+00
  0.00000000E+00  0.27365854E+02  0.20498066E+02  0.49806102E+00 -0.92728026E-10
  0.00000000E+00  0.29853659E+02  0.00000000E+00  0.50000000E+00  0.00000000E+00
  0.00000000E+00  0.29853659E+02  0.97609501E+00  0.50000000E+00  0.00000000E+00
  0.00000000E+00  0.29853659E+02  0.19521900E+01  0.50000000E+00  0.00000000E+00
  0.00000000E+00  0.29853659E+02  0.29282850E+01  0.50000000E+00  0.00000000E+00
  0.00000000E+00  0.29853659E+02  0.39043800E+01  0.50000000E+00  0.00000000E+00
  0.00000000E+00  0.29853659E+02  0.48804751E+01  0.50000000E+00  0.00000000E+00
  0.00000000E+00  0.29853659E+02  0.58565701E+01  0.50000000E+00  0.00000000E+00
  0.00000000E+00  0.29853659E+02  0.68326651E+01  0.50000000E+00  0.00000000E+00
  0.00000000E+00  0.29853659E+02  0.78087601E+01  0.50000000E+00  0.00000000E+00
  0.00000000E+00  0.29853659E+02  0.87848551E+01  0.50000000E+00  0.00000000E+00
  0.00000000E+00  0.29853659E+02  0.97609501E+01  0.50000000E+00  0.00000000E+00
  0.00000000E+00  0.29853659E+02  0.10737045E+02  0.50000000E+00  0.00000000E+00
  0.00000000E+00  0.29853659E+02  0.11713140E+02  0.50000000E+00  0.00000000E+00
  0.00000000E+00  0.29853659E+02  0.12689235E+02  0.50000000E+00  0.00000000E+00
  0.00000000E+00  0.29853659E+02  0.13665330E+02  0.50000000E+00  0.00000000E+00
  0.00000000E+00  0.29853659E+02  0.14641425E+02  0.50000000E+00  0.00000000E+00
  0.00000000E+00  0.29853659E+02  0.15617520E+02  0.50000000E+00  0.00000000E+00
  0.00000000E+00  0.29853659E+02  0.16593615E+02  0.50000000E+00  0.00000000E+00
  0.00000000E+00  0.29853659E+02  0.17569710E+02  0.50000000E+00  0.00000000E+00
  0.00000000E+00  0.29853659E+02  0.18545805E+02  0.50000000E+00  0.00000000E+00
  0.00000000E+00  0.29853659E+02  0.19521900E+02  0.50000000E+00  0.00000000E+00
  0.00000000E+00  0.29853659E+02  0.20497995E+02  0.49798965E+00 -0.95905583E-10
  0.00000000E+00  0.32341463E+02  0.00000000E+00  0.50000000E+00  0.00000000E+00
  0.00000000E+00  0.32341463E+02  0.97610502E+00  0.50000000E+00  0.00000000E+00
  0.00000000E+00  0.32341463E+02  0.19522100E+01  0.50000000E+00  0.00000000E+00
  0.00000000E+00  0.32341463E+02  0.29283151E+01  0.50000000E+00  0.00000000E+00
  0.00000000E+00  0.32341463E+02  0.39044201E+01  0.50000000E+00  0.00000000E+00
  0.00000000E+00  0.32341463E+02  0.48805251E+01  0.50000000E+00  0.00000000E+00
  0.00000000E+00  0.32341463E+02  0.58566301E+01  0.50000000E+00  0.00000000E+00
  0.00000000E+00  0.32341463E+02  0.68327352E+01  0.50000000E+00  0.00000000E+00
  0.00000000E+00  0.32341463E+02  0.78088402E+01  0.50000000E+00  0.00000000E+00
  0.00000000E+00  0.32341463E+02  0.87849452E+01  0.50000000E+00  0.00000000E+00
  0.00000000E+00  0.32341463E+02  0.97610502E+01  0.50000000E+00  0.00000000E+00
  0.00000000E+00  0.32341463E+02  0.10737155E+02  0.50000000E+00  0.00000000E+00
  0.00000000E+00  0.32341463E+02  0.11713260E+02  0.50000000E+00  0.00000000E+00
  0.00000000E+00  0.32341463E+02  0.12689365E+02  0.50000000E+00  0.00000000E+00
  0.00000000E+00  0.32341463E+02  0.13665470E+02  0.50000000E+00  0.00000000E+00
  0.00000000E+00  0.32341463E+02  0.14641575E+02  0.50000000E+00  0.00000000E+00
  0.00000000E+00  0.32341463E+02  0.15617680E+02  0.50000000E+00  0.00000000E+00
  0.00000000E+00  0.32341463E+02  0.16593785E+02  0.50000000E+00  0.00000000E+00
  0.00000000E+00  0.32341463E+02  0.17569890E+02  0.50000000E+00  0.00000000E+00
  0.00000000E+00  0.32341463E+02  0.18545995E+02  0.50000000E+00  0.00000000E+00
  0.00000000E+00  0.32341463E+02  0.19522100E+02  0.50000000E+00  0.00000000E+00
  0.00000000E+00  0.32341463E+02  0.20498205E+02  0.49820023E+00 -0.10460125E-09
  0.00000000E+00  0.34829268E+02  0.00000000E+00  0.50000000E+00  0.00000000E+00
  0.00000000E+00  0.34829268E+02  0.97612691E+00  0.50000000E+00  0.00000000E+00
  0.00000000E+00  0.34829268E+02  0.19522538E+01  0.50000000E+00  0.00000000E+00
  0.00000000E+00  0.34829268E+02  0.29283807E+01  0.50000000E+00  0.00000000E+00
  0.00000000E+00  0.34829268E+02  0.39045076E+01  0.50000000E+00  0.00000000E+00
  0.00000000E+00  0.34829268E+02  0.48806345E+01  0.50000000E+00  0.00000000E+00
  0.00000000E+00  0.34829268E+02  0.58567615E+01  0.50000000E+00  0.00000000E+00
  0.00000000E+00  0.34829268E+02  0.68328884E+01  0.50000000E+00  0.00000000E+00
  0.00000000E+00  0.34829268E+02  0.78090153E+01  0.50000000E+00  0.00000000E+00
  0.00000000E+00  0.34829268E+02  0.87851422E+01  0.50000000E+00  0.00000000E+00
  0.00000000E+00  0.34829268E+02  0.97612691E+01  0.50000000E+00  0.00000000E+00
  0.00000000E+00  0.34829268E+02  0.10737396E+02  0.50000000E+00  0.00000000E+00
  0.00000000E+00  0.34829268E+02  0.11713523E+02  0.50000000E+00  0.00000000E+00
  0.00000000E+00  0.34829268E+02  0.12689650E+02  0.50000000E+00  0.00000000E+00
  0.00000000E+00  0.34829268E+02  0.13665777E+02  0.50000000E+00  0.00000000E+00
  0.00000000E+00  0.34829268E+02  0.14641904E+02  0.50000000E+00  0.00000000E+00
  0.00000000E+00  0.34829268E+02  0.15618031E+02  0.50000000E+00  0.00000000E+00
  0.00000000E+00  0.34829268E+02  0.16594157E+02  0.50000000E+00  0.00000000E+00
  0.00000000E+00  0.34829268E+02  0.17570284E+02  0.50000000E+00  0.00000000E+00
  0.00000000E+00  0.34829268E+02  0.18546411E+02  0.50000000E+00  0.00000000E+00
  0.00000000E+00  0.34829268E+02  0.19522538E+02  0.50000000E+00  0.00000000E+00
  0.00000000E+00  0.34829268E+02  0.20498665E+02  0.49866046E+00 -0.12736823E-09
  0.00000000E+00  0.37317073E+02  0.00000000E+00  0.50000000E+00  0.00000000E+00
  0.00000000E+00  0.37317073E+02  0.97613726E+00  0.50000000E+00  0.00000000E+00
  0.00000000E+00  0.37317073E+02  0.19522745E+01  0.50000000E+00  0.00000000E+00
  0.00000000E+00  0.37317073E+02  0.29284118E+01  0.50000000E+00  0.00000000E+00
  0.00000000E+00  0.37317073E+02  0.39045490E+01  0.50000000E+00  0.00000000E+00
  0.00000000E+00  0.37317073E+02  0.48806863E+01  0.50000000E+00  0.00000000E+00
  0.00000000E+00  0.37317073E+02  0.58568236E+01  0.50000000E+00  0.00000000E+00
  0.00000000E+00  0.37317073E+02  0.68329608E+01  0.50000000E+00  0.00000000E+00
  0.00000000E+00  0.37317073E+02  0.78090981E+01  0.50000000E+00  0.00000000E+00
  0.00000000E+00  0.37317073E+02  0.87852354E+01  0.50000000E+00  0.00000000E+00
  0.00000000E+00  0.37317073E+02  0.97613726E+01  0.50000000E+00  0.00000000E+00
  0.00000000E+00  0.37317073E+02  0.10737510E+02  0.50000000E+00  0.00000000E+00
  0.00000000E+00  0.37317073E+02  0.11713647E+02  0.50000000E+00  0.00000000E+00
  0.00000000E+00  0.37317073E+02  0.12689784E+02  0.50000000E+00  0.00000000E+00
  0.00000000E+00  0.37317073E+02  0.13665922E+02  0.50000000E+00  0.00000000E+00
  0.00000000E+00  0.37317073E+02  0.14642059E+02  0.50000000E+00  0.00000000E+00
  0.00000000E+00  0.37317073E+02  0.15618196E+02  0.50000000E+00  0.00000000E+00
  0.00000000E+00  0.37317073E+02  0.16594333E+02  0.50000000E+00  0.00000000E+00
  0.00000000E+00  0.37317073E+02  0.17570471E+02  0.50000000E+00  0.00000000E+00
  0.00000000E+00  0.37317073E+02  0.18546608E+02  0.50000000E+00  0.00000000E+00
  0.00000000E+00  0.37317073E+02  0.19522745E+02  0.50000000E+00  0.00000000E+00
  0.00000000E+00  0.37317073E+02  0.20498883E+02  0.49887839E+00 -0.12962169E-09
  0.00000000E+00  0.39804878E+02  0.00000000E+00  0.50000000E+00  0.00000000E+00
  0.00000000E+00  0.39804878E+02  0.97613578E+00  0.50000000E+00  0.00000000E+00
  0.00000000E+00  0.39804878E+02  0.19522716E+01  0.50000000E+00  0.00000000E+00
  0.00000000E+00  0.39804878E+02  0.29284073E+01  0.50000000E+00  0.00000000E+00
  0.00000000E+00  0.39804878E+02  0.39045431E+01  0.50000000E+00  0.00000000E+00
  0.00000000E+00  0.39804878E+02  0.48806789E+01  0.50000000E+00  0.00000000E+00
  0.00000000E+00  0.39804878E+02  0.58568147E+01  0.50000000E+00  0.00000000E+00
  0.00000000E+00  0.39804878E+02  0.68329505E+01  0.50000000E+00  0.00000000E+00
  0.00000000E+00  0.39804878E+02  0.78090863E+01  0.50000000E+00  0.00000000E+00
  0.00000000E+00  0.39804878E+02  0.87852220E+01  0.50000000E+00  0.00000000E+00
  0.00000000E+00  0.39804878E+02  0.97613578E+01  0.50000000E+00  0.00000000E+00
  0.00000000E+00  0.39804878E+02  0.10737494E+02  0.50000000E+00  0.00000000E+00
  0.00000000E+00  0.39804878E+02  0.11713629E+02  0.50000000E+00  0.00000000E+00
  0.00000000E+00  0.39804878E+02  0.12689765E+02  0.50000000E+00  0.00000000E+00
  0.00000000E+00  0.39804878E+02  0.13665901E+02  0.50000000E+00  0.00000000E+00
  0.00000000E+00  0.39804878E+02  0.14642037E+02  0.50000000E+00  0.00000000E+00