title="2d K section "
variables="x","z","Kx","logKx","Kz","logKz","porosity"
zone i=    22, j=    42,T="Initial K at t=0"
   0.0000000E+00   0.0000000E+00   0.6238411E-04  -0.4204926E+01   0.6238411E-04  -0.4204926E+01   0.3000000E+00
   0.0000000E+00   0.9761905E+00   0.3126535E-04  -0.4504937E+01   0.3126535E-04  -0.4504937E+01   0.3000000E+00
   0.0000000E+00   0.1952381E+01   0.4592045E-04  -0.4337994E+01   0.4592045E-04  -0.4337994E+01   0.3000000E+00
   0.0000000E+00   0.2928571E+01   0.5033550E-04  -0.4298126E+01   0.5033550E-04  -0.4298126E+01   0.3000000E+00
   0.0000000E+00   0.3904762E+01   0.1817070E-04  -0.4740628E+01   0.1817070E-04  -0.4740628E+01   0.3000000E+00
   0.0000000E+00   0.4880952E+01   0.7942361E-05  -0.5100050E+01   0.7942361E-05  -0.5100050E+01   0.3000000E+00
   0.0000000E+00   0.5857143E+01   0.8055947E-05  -0.5093883E+01   0.8055947E-05  -0.5093883E+01   0.3000000E+00
   0.0000000E+00   0.6833333E+01   0.2953011E-04  -0.4529735E+01   0.2953011E-04  -0.4529735E+01   0.3000000E+00
   0.0000000E+00   0.7809524E+01   0.1307923E-03  -0.3883418E+01   0.1307923E-03  -0.3883418E+01   0.3000000E+00
   0.0000000E+00   0.8785714E+01   0.4309946E-04  -0.4365528E+01   0.4309946E-04  -0.4365528E+01   0.3000000E+00
   0.0000000E+00   0.9761905E+01   0.3135615E-04  -0.4503677E+01   0.3135615E-04  -0.4503677E+01   0.3000000E+00
   0.0000000E+00   0.1073810E+02   0.6611303E-07  -0.7179713E+01   0.6611303E-07  -0.7179713E+01   0.3000000E+00
   0.0000000E+00   0.1171429E+02   0.7003995E-07  -0.7154654E+01   0.7003995E-07  -0.7154654E+01   0.3000000E+00
   0.0000000E+00   0.1269048E+02   0.1769144E-06  -0.6752237E+01   0.1769144E-06  -0.6752237E+01   0.3000000E+00
   0.0000000E+00   0.1366667E+02   0.8338478E-07  -0.7078913E+01   0.8338478E-07  -0.7078913E+01   0.3000000E+00
   0.0000000E+00   0.1464286E+02   0.4416647E-07  -0.7354907E+01   0.4416647E-07  -0.7354907E+01   0.3000000E+00
   0.0000000E+00   0.1561905E+02   0.9245394E-04  -0.4034075E+01   0.9245394E-04  -0.4034075E+01   0.3000000E+00
   0.0000000E+00   0.1659524E+02   0.1676554E-03  -0.3775583E+01   0.1676554E-03  -0.3775583E+01   0.3000000E+00
   0.0000000E+00   0.1757143E+02   0.4633166E-03  -0.3334122E+01   0.4633166E-03  -0.3334122E+01   0.3000000E+00
   0.0000000E+00   0.1854762E+02   0.2883026E-03  -0.3540151E+01   0.2883026E-03  -0.3540151E+01   0.3000000E+00
   0.0000000E+00   0.1952381E+02   0.4126132E-03  -0.3384457E+01   0.4126132E-03  -0.3384457E+01   0.3000000E+00
   0.0000000E+00   0.2050000E+02   0.4126132E-03  -0.3384457E+01   0.4126132E-03  -0.3384457E+01   0.3000000E+00
   0.2487805E+01   0.0000000E+00   0.3478932E-04  -0.4458554E+01   0.3478932E-04  -0.4458554E+01   0.3000000E+00
   0.2487805E+01   0.9761905E+00   0.4254280E-04  -0.4371174E+01   0.4254280E-04  -0.4371174E+01   0.3000000E+00
   0.2487805E+01   0.1952381E+01   0.3162066E-04  -0.4500029E+01   0.3162066E-04  -0.4500029E+01   0.3000000E+00
   0.2487805E+01   0.2928571E+01   0.4230945E-04  -0.4373563E+01   0.4230945E-04  -0.4373563E+01   0.3000000E+00
   0.2487805E+01   0.3904762E+01   0.2409997E-04  -0.4617984E+01   0.2409997E-04  -0.4617984E+01   0.3000000E+00
   0.2487805E+01   0.4880952E+01   0.1087113E-04  -0.4963725E+01   0.1087113E-04  -0.4963725E+01   0.3000000E+00
   0.2487805E+01   0.5857143E+01   0.3673061E-04  -0.4434972E+01   0.3673061E-04  -0.4434972E+01   0.3000000E+00
   0.2487805E+01   0.6833333E+01   0.6066765E-04  -0.4217043E+01   0.6066765E-04  -0.4217043E+01   0.3000000E+00
   0.2487805E+01   0.7809524E+01   0.9890013E-04  -0.4004803E+01   0.9890013E-04  -0.4004803E+01   0.3000000E+00
   0.2487805E+01   0.8785714E+01   0.1111644E-03  -0.3954034E+01   0.1111644E-03  -0.3954034E+01   0.3000000E+00
   0.2487805E+01   0.9761905E+01   0.1037735E-03  -0.3983914E+01   0.1037735E-03  -0.3983914E+01   0.3000000E+00
   0.2487805E+01   0.1073810E+02   0.2487506E-07  -0.7604236E+01   0.2487506E-07  -0.7604236E+01   0.3000000E+00
   0.2487805E+01   0.1171429E+02   0.7199278E-07  -0.7142711E+01   0.7199278E-07  -0.7142711E+01   0.3000000E+00
   0.2487805E+01   0.1269048E+02   0.1130993E-06  -0.6946540E+01   0.1130993E-06  -0.6946540E+01   0.3000000E+00
   0.2487805E+01   0.1366667E+02   0.1199729E-06  -0.6920917E+01   0.1199729E-06  -0.6920917E+01   0.3000000E+00
   0.2487805E+01   0.1464286E+02   0.1626028E-03  -0.3788872E+01   0.1626028E-03  -0.3788872E+01   0.3000000E+00
   0.2487805E+01   0.1561905E+02   0.7565704E-04  -0.4121151E+01   0.7565704E-04  -0.4121151E+01   0.3000000E+00
   0.2487805E+01   0.1659524E+02   0.1106764E-03  -0.3955945E+01   0.1106764E-03  -0.3955945E+01   0.3000000E+00
   0.2487805E+01   0.1757143E+02   0.1569160E-03  -0.3804333E+01   0.1569160E-03  -0.3804333E+01   0.3000000E+00
   0.2487805E+01   0.1854762E+02   0.1925605E-03  -0.3715433E+01   0.1925605E-03  -0.3715433E+01   0.3000000E+00
   0.2487805E+01   0.1952381E+02   0.1780048E-03  -0.3749568E+01   0.1780048E-03  -0.3749568E+01   0.3000000E+00
   0.2487805E+01   0.2050000E+02   0.1780048E-03  -0.3749568E+01   0.1780048E-03  -0.3749568E+01   0.3000000E+00
   0.4975610E+01   0.0000000E+00   0.2791909E-04  -0.4554099E+01   0.2791909E-04  -0.4554099E+01   0.3000000E+00
   0.4975610E+01   0.9761905E+00   0.4955140E-04  -0.4304944E+01   0.4955140E-04  -0.4304944E+01   0.3000000E+00
   0.4975610E+01   0.1952381E+01   0.5243690E-04  -0.4280363E+01   0.5243690E-04  -0.4280363E+01   0.3000000E+00
   0.4975610E+01   0.2928571E+01   0.1861207E-04  -0.4730205E+01   0.1861207E-04  -0.4730205E+01   0.3000000E+00
   0.4975610E+01   0.3904762E+01   0.1082881E-04  -0.4965419E+01   0.1082881E-04  -0.4965419E+01   0.3000000E+00
   0.4975610E+01   0.4880952E+01   0.1442569E-04  -0.4840863E+01   0.1442569E-04  -0.4840863E+01   0.3000000E+00
   0.4975610E+01   0.5857143E+01   0.2950650E-04  -0.4530082E+01   0.2950650E-04  -0.4530082E+01   0.3000000E+00
   0.4975610E+01   0.6833333E+01   0.1059334E-03  -0.3974967E+01   0.1059334E-03  -0.3974967E+01   0.3000000E+00
   0.4975610E+01   0.7809524E+01   0.1101134E-03  -0.3958160E+01   0.1101134E-03  -0.3958160E+01   0.3000000E+00
   0.4975610E+01   0.8785714E+01   0.8659227E-04  -0.4062521E+01   0.8659227E-04  -0.4062521E+01   0.3000000E+00
   0.4975610E+01   0.9761905E+01   0.6959624E-04  -0.4157414E+01   0.6959624E-04  -0.4157414E+01   0.3000000E+00
   0.4975610E+01   0.1073810E+02   0.1930503E-07  -0.7714329E+01   0.1930503E-07  -0.7714329E+01   0.3000000E+00
   0.4975610E+01   0.1171429E+02   0.2169465E-07  -0.7663647E+01   0.2169465E-07  -0.7663647E+01   0.3000000E+00
   0.4975610E+01   0.1269048E+02   0.2613998E-07  -0.7582695E+01   0.2613998E-07  -0.7582695E+01   0.3000000E+00
   0.4975610E+01   0.1366667E+02   0.7063783E-07  -0.7150963E+01   0.7063783E-07  -0.7150963E+01   0.3000000E+00
   0.4975610E+01   0.1464286E+02   0.1825475E-03  -0.3738624E+01   0.1825475E-03  -0.3738624E+01   0.3000000E+00
   0.4975610E+01   0.1561905E+02   0.1372509E-03  -0.3862485E+01   0.1372509E-03  -0.3862485E+01   0.3000000E+00
   0.4975610E+01   0.1659524E+02   0.1618889E-03  -0.3790783E+01   0.1618889E-03  -0.3790783E+01   0.3000000E+00
   0.4975610E+01   0.1757143E+02   0.1108314E-03  -0.3955337E+01   0.1108314E-03  -0.3955337E+01   0.3000000E+00
   0.4975610E+01   0.1854762E+02   0.4684810E-04  -0.4329308E+01   0.4684810E-04  -0.4329308E+01   0.3000000E+00
   0.4975610E+01   0.1952381E+02   0.6712863E-04  -0.4173092E+01   0.6712863E-04  -0.4173092E+01   0.3000000E+00
   0.4975610E+01   0.2050000E+02   0.6712863E-04  -0.4173092E+01   0.6712863E-04  -0.4173092E+01   0.3000000E+00
   0.7463415E+01   0.0000000E+00   0.4482700E-04  -0.4348460E+01   0.4482700E-04  -0.4348460E+01   0.3000000E+00
   0.7463415E+01   0.9761905E+00   0.3373077E-04  -0.4471974E+01   0.3373077E-04  -0.4471974E+01   0.3000000E+00
   0.7463415E+01   0.1952381E+01   0.3725591E-04  -0.4428805E+01   0.3725591E-04  -0.4428805E+01   0.3000000E+00
   0.7463415E+01   0.2928571E+01   0.3019301E-04  -0.4520094E+01   0.3019301E-04  -0.4520094E+01   0.3000000E+00
   0.7463415E+01   0.3904762E+01   0.1620161E-04  -0.4790442E+01   0.1620161E-04  -0.4790442E+01   0.3000000E+00
   0.7463415E+01   0.4880952E+01   0.2079496E-04  -0.4682042E+01   0.2079496E-04  -0.4682042E+01   0.3000000E+00
   0.7463415E+01   0.5857143E+01   0.3919741E-04  -0.4406743E+01   0.3919741E-04  -0.4406743E+01   0.3000000E+00
   0.7463415E+01   0.6833333E+01   0.1123940E-03  -0.3949257E+01   0.1123940E-03  -0.3949257E+01   0.3000000E+00
   0.7463415E+01   0.7809524E+01   0.1283050E-03  -0.3891756E+01   0.1283050E-03  -0.3891756E+01   0.3000000E+00
   0.7463415E+01   0.8785714E+01   0.1835359E-03  -0.3736279E+01   0.1835359E-03  -0.3736279E+01   0.3000000E+00
   0.7463415E+01   0.9761905E+01   0.1351669E-03  -0.3869130E+01   0.1351669E-03  -0.3869130E+01   0.3000000E+00
   0.7463415E+01   0.1073810E+02   0.1661267E-07  -0.7779560E+01   0.1661267E-07  -0.7779560E+01   0.3000000E+00
   0.7463415E+01   0.1171429E+02   0.5568250E-07  -0.7254281E+01   0.5568250E-07  -0.7254281E+01   0.3000000E+00
   0.7463415E+01   0.1269048E+02   0.7010302E-07  -0.7154263E+01   0.7010302E-07  -0.7154263E+01   0.3000000E+00
   0.7463415E+01   0.1366667E+02   0.1692456E-07  -0.7771483E+01   0.1692456E-07  -0.7771483E+01   0.3000000E+00
   0.7463415E+01   0.1464286E+02   0.2071847E-03  -0.3683642E+01   0.2071847E-03  -0.3683642E+01   0.3000000E+00
   0.7463415E+01   0.1561905E+02   0.1310673E-03  -0.3882506E+01   0.1310673E-03  -0.3882506E+01   0.3000000E+00
   0.7463415E+01   0.1659524E+02   0.6582571E-04  -0.4181604E+01   0.6582571E-04  -0.4181604E+01   0.3000000E+00
   0.7463415E+01   0.1757143E+02   0.4778016E-04  -0.4320752E+01   0.4778016E-04  -0.4320752E+01   0.3000000E+00
   0.7463415E+01   0.1854762E+02   0.4688091E-04  -0.4329004E+01   0.4688091E-04  -0.4329004E+01   0.3000000E+00
   0.7463415E+01   0.1952381E+02   0.5207633E-04  -0.4283360E+01   0.5207633E-04  -0.4283360E+01   0.3000000E+00
   0.7463415E+01   0.2050000E+02   0.5207633E-04  -0.4283360E+01   0.5207633E-04  -0.4283360E+01   0.3000000E+00
   0.9951220E+01   0.0000000E+00   0.9352330E-04  -0.4029080E+01   0.9352330E-04  -0.4029080E+01   0.3000000E+00
   0.9951220E+01   0.9761905E+00   0.4332850E-04  -0.4363226E+01   0.4332850E-04  -0.4363226E+01   0.3000000E+00
   0.9951220E+01   0.1952381E+01   0.5068908E-04  -0.4295086E+01   0.5068908E-04  -0.4295086E+01   0.3000000E+00
   0.9951220E+01   0.2928571E+01   0.1985013E-04  -0.4702237E+01   0.1985013E-04  -0.4702237E+01   0.3000000E+00
   0.9951220E+01   0.3904762E+01   0.2994944E-04  -0.4523611E+01   0.2994944E-04  -0.4523611E+01   0.3000000E+00
   0.9951220E+01   0.4880952E+01   0.2156800E-04  -0.4666190E+01   0.2156800E-04  -0.4666190E+01   0.3000000E+00
   0.9951220E+01   0.5857143E+01   0.3253156E-04  -0.4487695E+01   0.3253156E-04  -0.4487695E+01   0.3000000E+00
   0.9951220E+01   0.6833333E+01   0.1391303E-03  -0.3856578E+01   0.1391303E-03  -0.3856578E+01   0.3000000E+00
   0.9951220E+01   0.7809524E+01   0.1579709E-03  -0.3801423E+01   0.1579709E-03  -0.3801423E+01   0.3000000E+00
   0.9951220E+01   0.8785714E+01   0.1837931E-03  -0.3735671E+01   0.1837931E-03  -0.3735671E+01   0.3000000E+00
   0.9951220E+01   0.9761905E+01   0.1004651E-03  -0.3997985E+01   0.1004651E-03  -0.3997985E+01   0.3000000E+00
   0.9951220E+01   0.1073810E+02   0.2116536E-07  -0.7674374E+01   0.2116536E-07  -0.7674374E+01   0.3000000E+00
   0.9951220E+01   0.1171429E+02   0.7635289E-07  -0.7117175E+01   0.7635289E-07  -0.7117175E+01   0.3000000E+00
   0.9951220E+01   0.1269048E+02   0.1322443E-07  -0.7878623E+01   0.1322443E-07  -0.7878623E+01   0.3000000E+00
   0.9951220E+01   0.1366667E+02   0.1209105E-07  -0.7917536E+01   0.1209105E-07  -0.7917536E+01   0.3000000E+00
   0.9951220E+01   0.1464286E+02   0.1163160E-03  -0.3934361E+01   0.1163160E-03  -0.3934361E+01   0.3000000E+00
   0.9951220E+01   0.1561905E+02   0.1449676E-03  -0.3838729E+01   0.1449676E-03  -0.3838729E+01   0.3000000E+00
   0.9951220E+01   0.1659524E+02   0.4688091E-04  -0.4329004E+01   0.4688091E-04  -0.4329004E+01   0.3000000E+00
   0.9951220E+01   0.1757143E+02   0.2110501E-04  -0.4675614E+01   0.2110501E-04  -0.4675614E+01   0.3000000E+00
   0.9951220E+01   0.1854762E+02   0.4178388E-04  -0.4378991E+01   0.4178388E-04  -0.4378991E+01   0.3000000E+00
   0.9951220E+01   0.1952381E+02   0.6436761E-04  -0.4191333E+01   0.6436761E-04  -0.4191333E+01   0.3000000E+00
   0.9951220E+01   0.2050000E+02   0.6436761E-04  -0.4191333E+01   0.6436761E-04  -0.4191333E+01   0.3000000E+00
   0.1243902E+02   0.0000000E+00   0.5025000E-04  -0.4298864E+01   0.5025000E-04  -0.4298864E+01   0.3000000E+00
   0.1243902E+02   0.9761905E+00   0.2735257E-04  -0.4563002E+01   0.2735257E-04  -0.4563002E+01   0.3000000E+00
   0.1243902E+02   0.1952381E+01   0.4540901E-04  -0.4342858E+01   0.4540901E-04  -0.4342858E+01   0.3000000E+00
   0.1243902E+02   0.2928571E+01   0.3597810E-04  -0.4443962E+01   0.3597810E-04  -0.4443962E+01   0.3000000E+00
   0.1243902E+02   0.3904762E+01   0.9707614E-05  -0.5012887E+01   0.9707614E-05  -0.5012887E+01   0.3000000E+00
   0.1243902E+02   0.4880952E+01   0.4379022E-04  -0.4358623E+01   0.4379022E-04  -0.4358623E+01   0.3000000E+00
   0.1243902E+02   0.5857143E+01   0.4247903E-04  -0.4371825E+01   0.4247903E-04  -0.4371825E+01   0.3000000E+00
   0.1243902E+02   0.6833333E+01   0.7022543E-04  -0.4153506E+01   0.7022543E-04  -0.4153506E+01   0.3000000E+00
   0.1243902E+02   0.7809524E+01   0.1098055E-03  -0.3959376E+01   0.1098055E-03  -0.3959376E+01   0.3000000E+00
   0.1243902E+02   0.8785714E+01   0.1991206E-03  -0.3700884E+01   0.1991206E-03  -0.3700884E+01   0.3000000E+00
   0.1243902E+02   0.9761905E+01   0.1079114E-03  -0.3966933E+01   0.1079114E-03  -0.3966933E+01   0.3000000E+00
   0.1243902E+02   0.1073810E+02   0.9165814E-07  -0.7037829E+01   0.9165814E-07  -0.7037829E+01   0.3000000E+00
   0.1243902E+02   0.1171429E+02   0.8570112E-07  -0.7067014E+01   0.8570112E-07  -0.7067014E+01   0.3000000E+00
   0.1243902E+02   0.1269048E+02   0.7179866E-07  -0.7143884E+01   0.7179866E-07  -0.7143884E+01   0.3000000E+00
   0.1243902E+02   0.1366667E+02   0.2122683E-07  -0.7673115E+01   0.2122683E-07  -0.7673115E+01   0.3000000E+00
   0.1243902E+02   0.1464286E+02   0.9557493E-04  -0.4019656E+01   0.9557493E-04  -0.4019656E+01   0.3000000E+00
   0.1243902E+02   0.1561905E+02   0.6476145E-04  -0.4188683E+01   0.6476145E-04  -0.4188683E+01   0.3000000E+00
   0.1243902E+02   0.1659524E+02   0.5375360E-04  -0.4269592E+01   0.5375360E-04  -0.4269592E+01   0.3000000E+00
   0.1243902E+02   0.1757143E+02   0.1900326E-04  -0.4721172E+01   0.1900326E-04  -0.4721172E+01   0.3000000E+00
   0.1243902E+02   0.1854762E+02   0.1771321E-04  -0.4751703E+01   0.1771321E-04  -0.4751703E+01   0.3000000E+00
   0.1243902E+02   0.1952381E+02   0.1576371E-04  -0.4802342E+01   0.1576371E-04  -0.4802342E+01   0.3000000E+00
   0.1243902E+02   0.2050000E+02   0.1576371E-04  -0.4802342E+01   0.1576371E-04  -0.4802342E+01   0.3000000E+00
   0.1492683E+02   0.0000000E+00   0.4744687E-04  -0.4323792E+01   0.4744687E-04  -0.4323792E+01   0.3000000E+00
   0.1492683E+02   0.9761905E+00   0.5836466E-04  -0.4233850E+01   0.5836466E-04  -0.4233850E+01   0.3000000E+00
   0.1492683E+02   0.1952381E+01   0.4932399E-04  -0.4306942E+01   0.4932399E-04  -0.4306942E+01   0.3000000E+00
   0.1492683E+02   0.2928571E+01   0.4698886E-04  -0.4328005E+01   0.4698886E-04  -0.4328005E+01   0.3000000E+00
   0.1492683E+02   0.3904762E+01   0.1321709E-04  -0.4878864E+01   0.1321709E-04  -0.4878864E+01   0.3000000E+00
   0.1492683E+02   0.4880952E+01   0.5290038E-04  -0.4276541E+01   0.5290038E-04  -0.4276541E+01   0.3000000E+00
   0.1492683E+02   0.5857143E+01   0.1052050E-03  -0.3977964E+01   0.1052050E-03  -0.3977964E+01   0.3000000E+00
   0.1492683E+02   0.6833333E+01   0.8243504E-04  -0.4083888E+01   0.8243504E-04  -0.4083888E+01   0.3000000E+00
   0.1492683E+02   0.7809524E+01   0.1225857E-03  -0.3911560E+01   0.1225857E-03  -0.3911560E+01   0.3000000E+00
   0.1492683E+02   0.8785714E+01   0.1103118E-03  -0.3957378E+01   0.1103118E-03  -0.3957378E+01   0.3000000E+00
   0.1492683E+02   0.9761905E+01   0.2567520E-03  -0.3590486E+01   0.2567520E-03  -0.3590486E+01   0.3000000E+00
   0.1492683E+02   0.1073810E+02   0.1204417E-06  -0.6919223E+01   0.1204417E-06  -0.6919223E+01   0.3000000E+00
   0.1492683E+02   0.1171429E+02   0.6693124E-07  -0.7174371E+01   0.6693124E-07  -0.7174371E+01   0.3000000E+00
   0.1492683E+02   0.1269048E+02   0.3332360E-07  -0.7477248E+01   0.3332360E-07  -0.7477248E+01   0.3000000E+00
   0.1492683E+02   0.1366667E+02   0.7244052E-07  -0.7140018E+01   0.7244052E-07  -0.7140018E+01   0.3000000E+00
   0.1492683E+02   0.1464286E+02   0.3788710E-04  -0.4421509E+01   0.3788710E-04  -0.4421509E+01   0.3000000E+00
   0.1492683E+02   0.1561905E+02   0.5485046E-04  -0.4260820E+01   0.5485046E-04  -0.4260820E+01   0.3000000E+00
   0.1492683E+02   0.1659524E+02   0.5299039E-04  -0.4275803E+01   0.5299039E-04  -0.4275803E+01   0.3000000E+00
   0.1492683E+02   0.1757143E+02   0.3553828E-04  -0.4449304E+01   0.3553828E-04  -0.4449304E+01   0.3000000E+00
   0.1492683E+02   0.1854762E+02   0.1833864E-04  -0.4736633E+01   0.1833864E-04  -0.4736633E+01   0.3000000E+00
   0.1492683E+02   0.1952381E+02   0.1459984E-04  -0.4835652E+01   0.1459984E-04  -0.4835652E+01   0.3000000E+00
   0.1492683E+02   0.2050000E+02   0.1459984E-04  -0.4835652E+01   0.1459984E-04  -0.4835652E+01   0.3000000E+00
   0.1741463E+02   0.0000000E+00   0.8627247E-04  -0.4064128E+01   0.8627247E-04  -0.4064128E+01   0.3000000E+00
   0.1741463E+02   0.9761905E+00   0.1235086E-03  -0.3908303E+01   0.1235086E-03  -0.3908303E+01   0.3000000E+00
   0.1741463E+02   0.1952381E+01   0.2681095E-04  -0.4571688E+01   0.2681095E-04  -0.4571688E+01   0.3000000E+00
   0.1741463E+02   0.2928571E+01   0.2944460E-04  -0.4530994E+01   0.2944460E-04  -0.4530994E+01   0.3000000E+00
   0.1741463E+02   0.3904762E+01   0.2692380E-04  -0.4569864E+01   0.2692380E-04  -0.4569864E+01   0.3000000E+00
   0.1741463E+02   0.4880952E+01   0.3532569E-04  -0.4451909E+01   0.3532569E-04  -0.4451909E+01   0.3000000E+00
   0.1741463E+02   0.5857143E+01   0.1059864E-03  -0.3974750E+01   0.1059864E-03  -0.3974750E+01   0.3000000E+00
   0.1741463E+02   0.6833333E+01   0.1060500E-03  -0.3974489E+01   0.1060500E-03  -0.3974489E+01   0.3000000E+00
   0.1741463E+02   0.7809524E+01   0.1828947E-03  -0.3737799E+01   0.1828947E-03  -0.3737799E+01   0.3000000E+00
   0.1741463E+02   0.8785714E+01   0.1406832E-03  -0.3851758E+01   0.1406832E-03  -0.3851758E+01   0.3000000E+00
   0.1741463E+02   0.9761905E+01   0.2359950E-03  -0.3627097E+01   0.2359950E-03  -0.3627097E+01   0.3000000E+00
   0.1741463E+02   0.1073810E+02   0.2046018E-06  -0.6689090E+01   0.2046018E-06  -0.6689090E+01   0.3000000E+00
   0.1741463E+02   0.1171429E+02   0.2897927E-06  -0.6537913E+01   0.2897927E-06  -0.6537913E+01   0.3000000E+00
   0.1741463E+02   0.1269048E+02   0.1296535E-06  -0.6887216E+01   0.1296535E-06  -0.6887216E+01   0.3000000E+00
   0.1741463E+02   0.1366667E+02   0.6374341E-07  -0.7195565E+01   0.6374341E-07  -0.7195565E+01   0.3000000E+00
   0.1741463E+02   0.1464286E+02   0.2492598E-04  -0.4603348E+01   0.2492598E-04  -0.4603348E+01   0.3000000E+00
   0.1741463E+02   0.1561905E+02   0.2332931E-04  -0.4632098E+01   0.2332931E-04  -0.4632098E+01   0.3000000E+00
   0.1741463E+02   0.1659524E+02   0.2149264E-04  -0.4667710E+01   0.2149264E-04  -0.4667710E+01   0.3000000E+00
   0.1741463E+02   0.1757143E+02   0.2038319E-04  -0.4690728E+01   0.2038319E-04  -0.4690728E+01   0.3000000E+00
   0.1741463E+02   0.1854762E+02   0.1399935E-04  -0.4853892E+01   0.1399935E-04  -0.4853892E+01   0.3000000E+00
   0.1741463E+02   0.1952381E+02   0.1453283E-04  -0.4837650E+01   0.1453283E-04  -0.4837650E+01   0.3000000E+00
   0.1741463E+02   0.2050000E+02   0.1453283E-04  -0.4837650E+01   0.1453283E-04  -0.4837650E+01   0.3000000E+00
   0.1990244E+02   0.0000000E+00   0.6216614E-04  -0.4206446E+01   0.6216614E-04  -0.4206446E+01   0.3000000E+00
   0.1990244E+02   0.9761905E+00   0.3103174E-04  -0.4508194E+01   0.3103174E-04  -0.4508194E+01   0.3000000E+00
   0.1990244E+02   0.1952381E+01   0.1816525E-04  -0.4740759E+01   0.1816525E-04  -0.4740759E+01   0.3000000E+00
   0.1990244E+02   0.2928571E+01   0.2014207E-04  -0.4695896E+01   0.2014207E-04  -0.4695896E+01   0.3000000E+00
   0.1990244E+02   0.3904762E+01   0.2271012E-04  -0.4643781E+01   0.2271012E-04  -0.4643781E+01   0.3000000E+00
   0.1990244E+02   0.4880952E+01   0.6052222E-04  -0.4218085E+01   0.6052222E-04  -0.4218085E+01   0.3000000E+00
   0.1990244E+02   0.5857143E+01   0.7856376E-04  -0.4104778E+01   0.7856376E-04  -0.4104778E+01   0.3000000E+00
   0.1990244E+02   0.6833333E+01   0.7611235E-04  -0.4118545E+01   0.7611235E-04  -0.4118545E+01   0.3000000E+00
   0.1990244E+02   0.7809524E+01   0.1626028E-03  -0.3788872E+01   0.1626028E-03  -0.3788872E+01   0.3000000E+00
   0.1990244E+02   0.8785714E+01   0.1165605E-03  -0.3933449E+01   0.1165605E-03  -0.3933449E+01   0.3000000E+00
   0.1990244E+02   0.9761905E+01   0.7650917E-04  -0.4116287E+01   0.7650917E-04  -0.4116287E+01   0.3000000E+00
   0.1990244E+02   0.1073810E+02   0.4555775E-06  -0.6341438E+01   0.4555775E-06  -0.6341438E+01   0.3000000E+00
   0.1990244E+02   0.1171429E+02   0.1061635E-05  -0.5974025E+01   0.1061635E-05  -0.5974025E+01   0.3000000E+00
   0.1990244E+02   0.1269048E+02   0.9232184E-06  -0.6034696E+01   0.9232184E-06  -0.6034696E+01   0.3000000E+00
   0.1990244E+02   0.1366667E+02   0.5467906E-06  -0.6262179E+01   0.5467906E-06  -0.6262179E+01   0.3000000E+00
   0.1990244E+02   0.1464286E+02   0.2940929E-04  -0.4531515E+01   0.2940929E-04  -0.4531515E+01   0.3000000E+00
   0.1990244E+02   0.1561905E+02   0.2169562E-04  -0.4663628E+01   0.2169562E-04  -0.4663628E+01   0.3000000E+00
   0.1990244E+02   0.1659524E+02   0.2707770E-04  -0.4567388E+01   0.2707770E-04  -0.4567388E+01   0.3000000E+00
   0.1990244E+02   0.1757143E+02   0.2347675E-04  -0.4629362E+01   0.2347675E-04  -0.4629362E+01   0.3000000E+00
   0.1990244E+02   0.1854762E+02   0.1857860E-04  -0.4730987E+01   0.1857860E-04  -0.4730987E+01   0.3000000E+00
   0.1990244E+02   0.1952381E+02   0.7538405E-05  -0.5122721E+01   0.7538405E-05  -0.5122721E+01   0.3000000E+00
   0.1990244E+02   0.2050000E+02   0.7538405E-05  -0.5122721E+01   0.7538405E-05  -0.5122721E+01   0.3000000E+00
   0.2239024E+02   0.0000000E+00   0.4417286E-04  -0.4354844E+01   0.4417286E-04  -0.4354844E+01   0.3000000E+00
   0.2239024E+02   0.9761905E+00   0.3798193E-04  -0.4420423E+01   0.3798193E-04  -0.4420423E+01   0.3000000E+00
   0.2239024E+02   0.1952381E+01   0.3671225E-04  -0.4435189E+01   0.3671225E-04  -0.4435189E+01   0.3000000E+00
   0.2239024E+02   0.2928571E+01   0.2554421E-04  -0.4592708E+01   0.2554421E-04  -0.4592708E+01   0.3000000E+00
   0.2239024E+02   0.3904762E+01   0.1153528E-04  -0.4937972E+01   0.1153528E-04  -0.4937972E+01   0.3000000E+00
   0.2239024E+02   0.4880952E+01   0.5247887E-04  -0.4280016E+01   0.5247887E-04  -0.4280016E+01   0.3000000E+00
   0.2239024E+02   0.5857143E+01   0.6988916E-04  -0.4155590E+01   0.6988916E-04  -0.4155590E+01   0.3000000E+00
   0.2239024E+02   0.6833333E+01   0.8565354E-04  -0.4067255E+01   0.8565354E-04  -0.4067255E+01   0.3000000E+00
   0.2239024E+02   0.7809524E+01   0.6821814E-04  -0.4166100E+01   0.6821814E-04  -0.4166100E+01   0.3000000E+00
   0.2239024E+02   0.8785714E+01   0.1734710E-03  -0.3760773E+01   0.1734710E-03  -0.3760773E+01   0.3000000E+00
   0.2239024E+02   0.9761905E+01   0.1425383E-03  -0.3846069E+01   0.1425383E-03  -0.3846069E+01   0.3000000E+00
   0.2239024E+02   0.1073810E+02   0.5651357E-06  -0.6247847E+01   0.5651357E-06  -0.6247847E+01   0.3000000E+00
   0.2239024E+02   0.1171429E+02   0.1710714E-05  -0.5766823E+01   0.1710714E-05  -0.5766823E+01   0.3000000E+00
   0.2239024E+02   0.1269048E+02   0.1658163E-05  -0.5780373E+01   0.1658163E-05  -0.5780373E+01   0.3000000E+00
   0.2239024E+02   0.1366667E+02   0.1559883E-05  -0.5806908E+01   0.1559883E-05  -0.5806908E+01   0.3000000E+00
   0.2239024E+02   0.1464286E+02   0.1345600E-03  -0.3871084E+01   0.1345600E-03  -0.3871084E+01   0.3000000E+00
   0.2239024E+02   0.1561905E+02   0.6716891E-04  -0.4172832E+01   0.6716891E-04  -0.4172832E+01   0.3000000E+00
   0.2239024E+02   0.1659524E+02   0.3431253E-04  -0.4464547E+01   0.3431253E-04  -0.4464547E+01   0.3000000E+00
   0.2239024E+02   0.1757143E+02   0.6390583E-04  -0.4194460E+01   0.6390583E-04  -0.4194460E+01   0.3000000E+00
   0.2239024E+02   0.1854762E+02   0.3350218E-04  -0.4474927E+01   0.3350218E-04  -0.4474927E+01   0.3000000E+00
   0.2239024E+02   0.1952381E+02   0.1116753E-04  -0.4952043E+01   0.1116753E-04  -0.4952043E+01   0.3000000E+00
   0.2239024E+02   0.2050000E+02   0.1116753E-04  -0.4952043E+01   0.1116753E-04  -0.4952043E+01   0.3000000E+00
   0.2487805E+02   0.0000000E+00   0.2595101E-04  -0.4585846E+01   0.2595101E-04  -0.4585846E+01   0.3000000E+00
   0.2487805E+02   0.9761905E+00   0.2528498E-04  -0.4597137E+01   0.2528498E-04  -0.4597137E+01   0.3000000E+00
   0.2487805E+02   0.1952381E+01   0.5199308E-04  -0.4284054E+01   0.5199308E-04  -0.4284054E+01   0.3000000E+00
   0.2487805E+02   0.2928571E+01   0.3378141E-04  -0.4471322E+01   0.3378141E-04  -0.4471322E+01   0.3000000E+00
   0.2487805E+02   0.3904762E+01   0.2413373E-04  -0.4617376E+01   0.2413373E-04  -0.4617376E+01   0.3000000E+00
   0.2487805E+02   0.4880952E+01   0.4401852E-04  -0.4356365E+01   0.4401852E-04  -0.4356365E+01   0.3000000E+00
   0.2487805E+02   0.5857143E+01   0.6384195E-04  -0.4194894E+01   0.6384195E-04  -0.4194894E+01   0.3000000E+00
   0.2487805E+02   0.6833333E+01   0.7564191E-04  -0.4121237E+01   0.7564191E-04  -0.4121237E+01   0.3000000E+00
   0.2487805E+02   0.7809524E+01   0.1209903E-03  -0.3917249E+01   0.1209903E-03  -0.3917249E+01   0.3000000E+00
   0.2487805E+02   0.8785714E+01   0.1940490E-03  -0.3712089E+01   0.1940490E-03  -0.3712089E+01   0.3000000E+00
   0.2487805E+02   0.9761905E+01   0.1793449E-03  -0.3746311E+01   0.1793449E-03  -0.3746311E+01   0.3000000E+00
   0.2487805E+02   0.1073810E+02   0.3688042E-06  -0.6433204E+01   0.3688042E-06  -0.6433204E+01   0.3000000E+00
   0.2487805E+02   0.1171429E+02   0.2119321E-06  -0.6673803E+01   0.2119321E-06  -0.6673803E+01   0.3000000E+00
   0.2487805E+02   0.1269048E+02   0.7467017E-06  -0.6126853E+01   0.7467017E-06  -0.6126853E+01   0.3000000E+00
   0.2487805E+02   0.1366667E+02   0.1229996E-05  -0.5910096E+01   0.1229996E-05  -0.5910096E+01   0.3000000E+00
   0.2487805E+02   0.1464286E+02   0.7319379E-04  -0.4135526E+01   0.7319379E-04  -0.4135526E+01   0.3000000E+00
   0.2487805E+02   0.1561905E+02   0.4041943E-04  -0.4393410E+01   0.4041943E-04  -0.4393410E+01   0.3000000E+00
   0.2487805E+02   0.1659524E+02   0.7252349E-04  -0.4139521E+01   0.7252349E-04  -0.4139521E+01   0.3000000E+00
   0.2487805E+02   0.1757143E+02   0.5275774E-04  -0.4277714E+01   0.5275774E-04  -0.4277714E+01   0.3000000E+00
   0.2487805E+02   0.1854762E+02   0.3317878E-04  -0.4479140E+01   0.3317878E-04  -0.4479140E+01   0.3000000E+00
   0.2487805E+02   0.1952381E+02   0.2815459E-04  -0.4550451E+01   0.2815459E-04  -0.4550451E+01   0.3000000E+00
   0.2487805E+02   0.2050000E+02   0.2815459E-04  -0.4550451E+01   0.2815459E-04  -0.4550451E+01   0.3000000E+00
   0.2736585E+02   0.0000000E+00   0.2077002E-04  -0.4682563E+01   0.2077002E-04  -0.4682563E+01   0.3000000E+00
   0.2736585E+02   0.9761905E+00   0.1727759E-04  -0.4762517E+01   0.1727759E-04  -0.4762517E+01   0.3000000E+00
   0.2736585E+02   0.1952381E+01   0.1622593E-04  -0.4789790E+01   0.1622593E-04  -0.4789790E+01   0.3000000E+00
   0.2736585E+02   0.2928571E+01   0.2834386E-04  -0.4547541E+01   0.2834386E-04  -0.4547541E+01   0.3000000E+00
   0.2736585E+02   0.3904762E+01   0.2009780E-04  -0.4696851E+01   0.2009780E-04  -0.4696851E+01   0.3000000E+00
   0.2736585E+02   0.4880952E+01   0.6491707E-04  -0.4187641E+01   0.6491707E-04  -0.4187641E+01   0.3000000E+00
   0.2736585E+02   0.5857143E+01   0.1036076E-03  -0.3984608E+01   0.1036076E-03  -0.3984608E+01   0.3000000E+00
   0.2736585E+02   0.6833333E+01   0.1075774E-03  -0.3968279E+01   0.1075774E-03  -0.3968279E+01   0.3000000E+00
   0.2736585E+02   0.7809524E+01   0.1090613E-03  -0.3962329E+01   0.1090613E-03  -0.3962329E+01   0.3000000E+00
   0.2736585E+02   0.8785714E+01   0.1232125E-03  -0.3909345E+01   0.1232125E-03  -0.3909345E+01   0.3000000E+00
   0.2736585E+02   0.9761905E+01   0.1196189E-03  -0.3922200E+01   0.1196189E-03  -0.3922200E+01   0.3000000E+00
   0.2736585E+02   0.1073810E+02   0.3152815E-06  -0.6501302E+01   0.3152815E-06  -0.6501302E+01   0.3000000E+00
   0.2736585E+02   0.1171429E+02   0.3188963E-06  -0.6496351E+01   0.3188963E-06  -0.6496351E+01   0.3000000E+00
   0.2736585E+02   0.1269048E+02   0.2430254E-06  -0.6614348E+01   0.2430254E-06  -0.6614348E+01   0.3000000E+00
   0.2736585E+02   0.1366667E+02   0.3523292E-06  -0.6453051E+01   0.3523292E-06  -0.6453051E+01   0.3000000E+00
   0.2736585E+02   0.1464286E+02   0.2873197E-04  -0.4541635E+01   0.2873197E-04  -0.4541635E+01   0.3000000E+00
   0.2736585E+02   0.1561905E+02   0.3876084E-04  -0.4411607E+01   0.3876084E-04  -0.4411607E+01   0.3000000E+00
   0.2736585E+02   0.1659524E+02   0.4944745E-04  -0.4305856E+01   0.4944745E-04  -0.4305856E+01   0.3000000E+00
   0.2736585E+02   0.1757143E+02   0.6159684E-04  -0.4210442E+01   0.6159684E-04  -0.4210442E+01   0.3000000E+00
   0.2736585E+02   0.1854762E+02   0.8018292E-04  -0.4095918E+01   0.8018292E-04  -0.4095918E+01   0.3000000E+00
   0.2736585E+02   0.1952381E+02   0.6256528E-04  -0.4203667E+01   0.6256528E-04  -0.4203667E+01   0.3000000E+00
   0.2736585E+02   0.2050000E+02   0.6256528E-04  -0.4203667E+01   0.6256528E-04  -0.4203667E+01   0.3000000E+00