title="2d vectors xz, t=    0.150E+03"
variables="x","z","vx","vz"
zone i=    21, j=    41, T="   0.150E+03"
  0.124390E+01  0.488081E+00  0.379967E-06  0.168946E-07
  0.124390E+01  0.146424E+01  0.197440E-06  0.939941E-08
  0.124390E+01  0.244041E+01  0.298441E-06  0.774174E-08
  0.124390E+01  0.341657E+01  0.339648E-06  0.234058E-07
  0.124390E+01  0.439273E+01  0.131511E-06  0.142368E-07
  0.124390E+01  0.536889E+01  0.650188E-07  0.129828E-07
  0.124390E+01  0.634506E+01  0.709601E-07 -0.395832E-09
  0.124390E+01  0.732122E+01  0.253127E-06 -0.163540E-07
  0.124390E+01  0.829738E+01  0.110922E-05  0.420642E-07
  0.124390E+01  0.927354E+01  0.387264E-06  0.415683E-07
  0.124390E+01  0.102497E+02  0.297889E-06  0.109004E-07
  0.124390E+01  0.112259E+02  0.564665E-09 -0.184620E-09
  0.124390E+01  0.122020E+02  0.496508E-09 -0.636029E-10
  0.124390E+01  0.131782E+02  0.119133E-08  0.601901E-12
  0.124390E+01  0.141544E+02  0.573362E-09  0.299245E-10
  0.124390E+01  0.151305E+02  0.291407E-09 -0.471643E-10
  0.124390E+01  0.161067E+02  0.501621E-06 -0.177502E-06
  0.124390E+01  0.170828E+02  0.707977E-06 -0.192080E-06
  0.124390E+01  0.180590E+02  0.171598E-05 -0.821938E-07
  0.124390E+01  0.190352E+02  0.103924E-05 -0.216006E-07
  0.124390E+01  0.200113E+02  0.122528E-05  0.237895E-06
  0.373171E+01  0.488041E+00  0.245690E-06  0.193806E-07
  0.373171E+01  0.146412E+01  0.302351E-06  0.297822E-07
  0.373171E+01  0.244021E+01  0.221532E-06 -0.603379E-09
  0.373171E+01  0.341629E+01  0.273837E-06 -0.312736E-08
  0.373171E+01  0.439237E+01  0.142849E-06  0.284946E-07
  0.373171E+01  0.536845E+01  0.599209E-07  0.282169E-07
  0.373171E+01  0.634453E+01  0.201446E-06  0.185726E-07
  0.373171E+01  0.732062E+01  0.362200E-06 -0.287135E-07
  0.373171E+01  0.829670E+01  0.589409E-06 -0.179753E-08
  0.373171E+01  0.927278E+01  0.573084E-06  0.600681E-07
  0.373171E+01  0.102489E+02  0.459059E-06  0.227585E-07
  0.373171E+01  0.112249E+02  0.114553E-09 -0.115597E-09
  0.373171E+01  0.122010E+02  0.356049E-09 -0.135858E-09
  0.373171E+01  0.131771E+02  0.544081E-09 -0.301461E-10
  0.373171E+01  0.141532E+02  0.568001E-09  0.956029E-10
  0.373171E+01  0.151293E+02  0.841322E-06 -0.177941E-06
  0.373171E+01  0.161054E+02  0.456014E-06 -0.204802E-06
  0.373171E+01  0.170814E+02  0.711180E-06 -0.266677E-06
  0.373171E+01  0.180575E+02  0.914955E-06 -0.275135E-06
  0.373171E+01  0.190336E+02  0.940808E-06 -0.223436E-06
  0.373171E+01  0.200097E+02  0.823463E-06 -0.110162E-06
  0.621951E+01  0.487958E+00  0.185570E-06 -0.454477E-09
  0.621951E+01  0.146387E+01  0.303325E-06  0.240403E-08
  0.621951E+01  0.243979E+01  0.312427E-06 -0.216567E-08
  0.621951E+01  0.341570E+01  0.119829E-06 -0.350465E-08
  0.621951E+01  0.439162E+01  0.713438E-07  0.314484E-08
  0.621951E+01  0.536753E+01  0.857406E-07  0.113302E-07
  0.621951E+01  0.634345E+01  0.153690E-06  0.109927E-07
  0.621951E+01  0.731936E+01  0.516418E-06  0.504248E-08
  0.621951E+01  0.829528E+01  0.555428E-06 -0.148406E-07
  0.621951E+01  0.927119E+01  0.474524E-06 -0.244656E-07
  0.621951E+01  0.102471E+02  0.400516E-06 -0.849965E-08
  0.621951E+01  0.112230E+02  0.120969E-09 -0.490404E-10
  0.621951E+01  0.121989E+02  0.153804E-09 -0.223088E-10
  0.621951E+01  0.131749E+02  0.187454E-09 -0.329826E-10
  0.621951E+01  0.141508E+02  0.441700E-09 -0.524816E-10
  0.621951E+01  0.151267E+02  0.101090E-05 -0.469503E-07
  0.621951E+01  0.161026E+02  0.753203E-06 -0.205449E-06
  0.621951E+01  0.170785E+02  0.938950E-06 -0.292879E-06
  0.621951E+01  0.180544E+02  0.742433E-06 -0.175106E-06
  0.621951E+01  0.190303E+02  0.359577E-06 -0.587494E-07
  0.621951E+01  0.200063E+02  0.534747E-06 -0.299903E-07
  0.870732E+01  0.487821E+00  0.256760E-06 -0.207872E-07
  0.870732E+01  0.146346E+01  0.194168E-06 -0.259978E-07
  0.870732E+01  0.243911E+01  0.206391E-06 -0.710893E-08
  0.870732E+01  0.341475E+01  0.155253E-06  0.516529E-08
  0.870732E+01  0.439039E+01  0.801399E-07 -0.299792E-08
  0.870732E+01  0.536603E+01  0.989062E-07 -0.180508E-07
  0.870732E+01  0.634168E+01  0.178194E-06 -0.150526E-07
  0.870732E+01  0.731732E+01  0.510051E-06 -0.756265E-08
  0.870732E+01  0.829296E+01  0.562151E-06  0.154060E-08
  0.870732E+01  0.926860E+01  0.753070E-06 -0.505534E-08
  0.870732E+01  0.102442E+02  0.532332E-06 -0.130411E-07
  0.870732E+01  0.112199E+02  0.785038E-10  0.123772E-10
  0.870732E+01  0.121955E+02  0.305711E-09 -0.147439E-10
  0.870732E+01  0.131712E+02  0.397361E-09 -0.956027E-10
  0.870732E+01  0.141468E+02  0.104704E-09 -0.281173E-10
  0.870732E+01  0.151225E+02  0.137684E-05  0.150196E-08
  0.870732E+01  0.160981E+02  0.938284E-06 -0.760408E-07
  0.870732E+01  0.170737E+02  0.491139E-06 -0.763184E-07
  0.870732E+01  0.180494E+02  0.349433E-06 -0.150757E-07
  0.870732E+01  0.190250E+02  0.345930E-06  0.650185E-08
  0.870732E+01  0.200007E+02  0.402900E-06 -0.970169E-08
  0.111951E+02  0.487677E+00  0.387255E-06 -0.121603E-07
  0.111951E+02  0.146303E+01  0.194262E-06 -0.682175E-08
  0.111951E+02  0.243839E+01  0.252614E-06 -0.411110E-08
  0.111951E+02  0.341374E+01  0.103059E-06 -0.837953E-08
  0.111951E+02  0.438909E+01  0.151544E-06 -0.127924E-07
  0.111951E+02  0.536445E+01  0.109929E-06 -0.219405E-07
  0.111951E+02  0.633980E+01  0.159134E-06 -0.421179E-07
  0.111951E+02  0.731516E+01  0.617067E-06 -0.475428E-07
  0.111951E+02  0.829051E+01  0.710381E-06  0.698136E-08
  0.111951E+02  0.926587E+01  0.880239E-06 -0.435003E-08
  0.111951E+02  0.102412E+02  0.497595E-06 -0.103845E-07
  0.111951E+02  0.112166E+02  0.118306E-09  0.927971E-10
  0.111951E+02  0.121919E+02  0.521267E-09  0.918857E-10
  0.111951E+02  0.131673E+02  0.104843E-09  0.568812E-11
  0.111951E+02  0.141426E+02  0.105718E-09 -0.648195E-12
  0.111951E+02  0.151180E+02  0.103827E-05  0.421216E-08
  0.111951E+02  0.160933E+02  0.125561E-05  0.350622E-08
  0.111951E+02  0.170687E+02  0.411133E-06 -0.335721E-07
  0.111951E+02  0.180441E+02  0.177455E-06 -0.434468E-07
  0.111951E+02  0.190194E+02  0.297893E-06 -0.506948E-07
  0.111951E+02  0.199948E+02  0.393705E-06 -0.325315E-07
  0.136829E+02  0.487584E+00  0.377397E-06  0.234317E-08
  0.136829E+02  0.146275E+01  0.197448E-06 -0.558169E-08
  0.136829E+02  0.243792E+01  0.300693E-06 -0.127665E-07
  0.136829E+02  0.341309E+01  0.223510E-06 -0.264713E-07
  0.136829E+02  0.438826E+01  0.555337E-07 -0.165522E-07
  0.136829E+02  0.536343E+01  0.235905E-06 -0.217490E-07
  0.136829E+02  0.633859E+01  0.242666E-06 -0.641076E-07
  0.136829E+02  0.731376E+01  0.410224E-06 -0.676726E-07
  0.136829E+02  0.828893E+01  0.594911E-06 -0.282770E-07
  0.136829E+02  0.926410E+01  0.102325E-05  0.621473E-07
  0.136829E+02  0.102393E+02  0.569267E-06  0.352473E-07
  0.136829E+02  0.112144E+02  0.453835E-09  0.435730E-09
  0.136829E+02  0.121896E+02  0.423371E-09  0.339771E-09
  0.136829E+02  0.131648E+02  0.470047E-09  0.328736E-09
  0.136829E+02  0.141399E+02  0.172811E-09  0.413404E-10
  0.136829E+02  0.151151E+02  0.843032E-06  0.224943E-07
  0.136829E+02  0.160903E+02  0.607851E-06  0.383070E-07
  0.136829E+02  0.170654E+02  0.532862E-06  0.181691E-07
  0.136829E+02  0.180406E+02  0.205980E-06 -0.317892E-07
  0.136829E+02  0.190158E+02  0.207685E-06 -0.461131E-07
  0.136829E+02  0.199909E+02  0.185625E-06 -0.247710E-07
  0.161707E+02  0.487363E+00  0.258953E-06 -0.390427E-08
  0.161707E+02  0.146209E+01  0.317086E-06 -0.515687E-07
  0.161707E+02  0.243681E+01  0.257381E-06 -0.825331E-07
  0.161707E+02  0.341154E+01  0.235271E-06 -0.436334E-07
  0.161707E+02  0.438627E+01  0.679705E-07 -0.320154E-07
  0.161707E+02  0.536099E+01  0.269237E-06 -0.405877E-07
  0.161707E+02  0.633572E+01  0.532774E-06 -0.497979E-07
  0.161707E+02  0.731044E+01  0.442193E-06 -0.746501E-07
  0.161707E+02  0.828517E+01  0.686895E-06 -0.964629E-07
  0.161707E+02  0.925989E+01  0.598281E-06 -0.363925E-07
  0.161707E+02  0.102346E+02  0.127283E-05  0.327132E-07
  0.161707E+02  0.112093E+02  0.755951E-09  0.902783E-09
  0.161707E+02  0.121841E+02  0.556303E-09  0.427877E-09
  0.161707E+02  0.131588E+02  0.304358E-09  0.278368E-09
  0.161707E+02  0.141335E+02  0.708664E-09  0.282740E-09
  0.161707E+02  0.151082E+02  0.372311E-06  0.485314E-08
  0.161707E+02  0.160830E+02  0.502043E-06  0.231461E-07
  0.161707E+02  0.170577E+02  0.461411E-06  0.379477E-07
  0.161707E+02  0.180324E+02  0.312655E-06  0.193030E-07
  0.161707E+02  0.190072E+02  0.176534E-06 -0.815446E-08
  0.161707E+02  0.199819E+02  0.156282E-06 -0.124196E-07
  0.186585E+02  0.487180E+00  0.306549E-06 -0.303308E-07
  0.186585E+02  0.146154E+01  0.443026E-06 -0.731286E-07
  0.186585E+02  0.243590E+01  0.110334E-06 -0.312335E-07
  0.186585E+02  0.341026E+01  0.136300E-06 -0.195876E-07
  0.186585E+02  0.438462E+01  0.139761E-06 -0.243756E-07
  0.186585E+02  0.535898E+01  0.201470E-06 -0.393143E-07
  0.186585E+02  0.633334E+01  0.587649E-06 -0.633881E-07
  0.186585E+02  0.730770E+01  0.564360E-06 -0.619948E-07
  0.186585E+02  0.828205E+01  0.954968E-06 -0.137817E-06
  0.186585E+02  0.925641E+01  0.709616E-06 -0.179494E-06
  0.186585E+02  0.102308E+02  0.115244E-05 -0.124512E-06
  0.186585E+02  0.112051E+02  0.175425E-08  0.428590E-08
  0.186585E+02  0.121795E+02  0.385945E-08  0.297293E-08
  0.186585E+02  0.131539E+02  0.184551E-08  0.115806E-08
  0.186585E+02  0.141282E+02  0.902665E-09  0.305999E-09
  0.186585E+02  0.151026E+02  0.354821E-06 -0.116094E-07
  0.186585E+02  0.160769E+02  0.333730E-06 -0.122655E-07
  0.186585E+02  0.170513E+02  0.301630E-06 -0.356214E-08
  0.186585E+02  0.180256E+02  0.272014E-06 -0.211460E-08
  0.186585E+02  0.190000E+02  0.172205E-06 -0.486961E-08
  0.186585E+02  0.199744E+02  0.161129E-06 -0.188121E-07
  0.211463E+02  0.486987E+00  0.333455E-06  0.108005E-08
  0.211463E+02  0.146096E+01  0.180331E-06  0.829853E-08
  0.211463E+02  0.243493E+01  0.111069E-06  0.179952E-08
  0.211463E+02  0.340891E+01  0.123598E-06 -0.113072E-07
  0.211463E+02  0.438288E+01  0.134184E-06 -0.354445E-08
  0.211463E+02  0.535685E+01  0.360686E-06 -0.256603E-07
  0.211463E+02  0.633083E+01  0.502982E-06 -0.441646E-07
  0.211463E+02  0.730480E+01  0.503018E-06 -0.504282E-07
  0.211463E+02  0.827877E+01  0.113569E-05  0.443614E-08
  0.211463E+02  0.925275E+01  0.929556E-06  0.231046E-08
  0.211463E+02  0.102267E+02  0.678563E-06  0.380713E-08
  0.211463E+02  0.112007E+02  0.426615E-08  0.141565E-07
  0.211463E+02  0.121747E+02  0.965614E-08  0.122940E-07
  0.211463E+02  0.131486E+02  0.827628E-08  0.888615E-08
  0.211463E+02  0.141226E+02  0.607672E-08  0.514873E-08
  0.211463E+02  0.150966E+02  0.379805E-06 -0.849490E-08
  0.211463E+02  0.160706E+02  0.276273E-06 -0.213633E-07
  0.211463E+02  0.170445E+02  0.344290E-06 -0.121499E-07
  0.211463E+02  0.180185E+02  0.309161E-06 -0.989894E-08
  0.211463E+02  0.189925E+02  0.252077E-06 -0.311649E-07
  0.211463E+02  0.199665E+02  0.103410E-06 -0.202344E-07
  0.236341E+02  0.486726E+00  0.206833E-06  0.184763E-07
  0.236341E+02  0.146018E+01  0.179385E-06  0.422930E-07
  0.236341E+02  0.243363E+01  0.183749E-06  0.275163E-07
  0.236341E+02  0.340708E+01  0.141555E-06  0.549725E-08
  0.236341E+02  0.438053E+01  0.700978E-07 -0.169580E-08
  0.236341E+02  0.535398E+01  0.327630E-06  0.640851E-08
  0.236341E+02  0.632743E+01  0.443967E-06  0.211272E-07
  0.236341E+02  0.730089E+01  0.586881E-06  0.237367E-07
  0.236341E+02  0.827434E+01  0.487477E-06  0.545003E-07
  0.236341E+02  0.924779E+01  0.117409E-05  0.141302E-06
  0.236341E+02  0.102212E+02  0.905854E-06  0.691080E-07
  0.236341E+02  0.111947E+02  0.291122E-08  0.162994E-07
  0.236341E+02  0.121681E+02  0.870015E-08  0.221998E-07
  0.236341E+02  0.131416E+02  0.107244E-07  0.189625E-07
  0.236341E+02  0.141150E+02  0.953707E-08  0.190350E-07
  0.236341E+02  0.150885E+02  0.756974E-06  0.381948E-07
  0.236341E+02  0.160620E+02  0.455100E-06  0.618075E-07
  0.236341E+02  0.170354E+02  0.278232E-06  0.344785E-07
  0.236341E+02  0.180089E+02  0.543197E-06  0.181903E-07
  0.236341E+02  0.189823E+02  0.303785E-06  0.291475E-08
  0.236341E+02  0.199558E+02  0.115116E-06 -0.100216E-07
  0.261220E+02  0.486541E+00  0.144151E-06  0.440604E-08
  0.261220E+02  0.145962E+01  0.132613E-06  0.170313E-07
  0.261220E+02  0.243270E+01  0.256001E-06  0.567229E-07
  0.261220E+02  0.340579E+01  0.171191E-06  0.545135E-07
  0.261220E+02  0.437887E+01  0.137486E-06  0.345614E-07
  0.261220E+02  0.535195E+01  0.280573E-06  0.307971E-07
  0.261220E+02  0.632503E+01  0.416254E-06  0.241408E-07
  0.261220E+02  0.729811E+01  0.458517E-06  0.231659E-07
  0.261220E+02  0.827119E+01  0.663517E-06  0.545081E-08
  0.261220E+02  0.924427E+01  0.101470E-05 -0.942424E-08
  0.261220E+02  0.102174E+02  0.925568E-06  0.211123E-07
  0.261220E+02  0.111904E+02  0.156518E-08  0.877640E-08
  0.261220E+02  0.121635E+02  0.120358E-08  0.456476E-08
  0.261220E+02  0.131366E+02  0.606184E-08  0.944841E-08
  0.261220E+02  0.141097E+02  0.101485E-07  0.128274E-07
  0.261220E+02  0.150828E+02  0.605361E-06  0.632594E-07
  0.261220E+02  0.160558E+02  0.324930E-06  0.108650E-06
  0.261220E+02  0.170289E+02  0.567518E-06  0.152345E-06
  0.261220E+02  0.180020E+02  0.452212E-06  0.110670E-06
  0.261220E+02  0.189751E+02  0.312482E-06  0.627242E-07
  0.261220E+02  0.199482E+02  0.266665E-06  0.170940E-07
  0.286098E+02  0.486380E+00  0.186003E-06  0.244890E-08
  0.286098E+02  0.145914E+01  0.158878E-06  0.945646E-08
  0.286098E+02  0.243190E+01  0.148947E-06  0.577095E-08
  0.286098E+02  0.340466E+01  0.232065E-06  0.510893E-08
  0.286098E+02  0.437742E+01  0.129640E-06  0.660330E-09
  0.286098E+02  0.535018E+01  0.324746E-06  0.829903E-08
  0.286098E+02  0.632294E+01  0.481312E-06  0.425770E-07
  0.286098E+02  0.729570E+01  0.556904E-06  0.494875E-07
  0.286098E+02  0.826846E+01  0.646118E-06  0.355646E-07
  0.286098E+02  0.924122E+01  0.795550E-06  0.468168E-07
  0.286098E+02  0.102140E+02  0.804215E-06  0.234519E-07
  0.286098E+02  0.111867E+02  0.218768E-08  0.691483E-08
  0.286098E+02  0.121595E+02  0.152659E-08  0.688313E-08
  0.286098E+02  0.131323E+02  0.105966E-08  0.431746E-08
  0.286098E+02  0.141050E+02  0.256917E-08  0.463730E-08
  0.286098E+02  0.150778E+02  0.242346E-06  0.318427E-07
  0.286098E+02  0.160505E+02  0.327290E-06  0.727077E-07
  0.286098E+02  0.170233E+02  0.416697E-06  0.114966E-06
  0.286098E+02  0.179961E+02  0.494271E-06  0.169573E-06
  0.286098E+02  0.189688E+02  0.588209E-06  0.131581E-06
  0.286098E+02  0.199416E+02  0.447252E-06  0.322096E-07
  0.310976E+02  0.486250E+00  0.282559E-06 -0.653289E-08
  0.310976E+02  0.145875E+01  0.187679E-06 -0.194327E-07
  0.310976E+02  0.243125E+01  0.301324E-06 -0.338689E-07
  0.310976E+02  0.340375E+01  0.255404E-06 -0.276954E-07
  0.310976E+02  0.437625E+01  0.177724E-06 -0.413947E-07
  0.310976E+02  0.534875E+01  0.216750E-06 -0.242036E-07
  0.310976E+02  0.632126E+01  0.237738E-06 -0.667386E-08
  0.310976E+02  0.729376E+01  0.464906E-06  0.403446E-07
  0.310976E+02  0.826626E+01  0.514701E-06  0.952041E-07
  0.310976E+02  0.923876E+01  0.551940E-06  0.593934E-07
  0.310976E+02  0.102113E+02  0.842564E-06  0.274289E-07
  0.310976E+02  0.111838E+02  0.181597E-08  0.407796E-08
  0.310976E+02  0.121563E+02  0.237532E-08  0.550313E-08
  0.310976E+02  0.131288E+02  0.148800E-08  0.497089E-08
  0.310976E+02  0.141013E+02  0.118945E-08  0.369746E-08
  0.310976E+02  0.150738E+02  0.182958E-06  0.373949E-08
  0.310976E+02  0.160463E+02  0.347109E-06  0.988961E-08
  0.310976E+02  0.170188E+02  0.212089E-06  0.274959E-07
  0.310976E+02  0.179913E+02  0.524264E-06  0.551260E-07
  0.310976E+02  0.189638E+02  0.693608E-06  0.329679E-07
  0.310976E+02  0.199363E+02  0.759169E-06  0.168761E-07
  0.335854E+02  0.486194E+00  0.408257E-06 -0.215076E-07
  0.335854E+02  0.145858E+01  0.311965E-06 -0.467088E-07
  0.335854E+02  0.243097E+01  0.211813E-06 -0.174943E-07
  0.335854E+02  0.340336E+01  0.303046E-06 -0.131361E-07
  0.335854E+02  0.437575E+01  0.145457E-06 -0.160949E-08
  0.335854E+02  0.534814E+01  0.143199E-06 -0.660232E-08
  0.335854E+02  0.632052E+01  0.284892E-06 -0.234419E-07
  0.335854E+02  0.729291E+01  0.174964E-06 -0.605827E-08
  0.335854E+02  0.826530E+01  0.364219E-06  0.322025E-08
  0.335854E+02  0.923769E+01  0.643638E-06 -0.179907E-07
  0.335854E+02  0.102101E+02  0.750383E-06 -0.313920E-07
  0.335854E+02  0.111825E+02  0.884380E-08  0.101907E-07
  0.335854E+02  0.121549E+02  0.384114E-08  0.487723E-08
  0.335854E+02  0.131272E+02  0.147577E-08  0.309310E-08
  0.335854E+02  0.140996E+02  0.744296E-09  0.312776E-08
  0.335854E+02  0.150720E+02  0.282807E-06 -0.187097E-07
  0.335854E+02  0.160444E+02  0.306788E-06 -0.315807E-07
  0.335854E+02  0.170168E+02  0.117649E-06 -0.130879E-07
  0.335854E+02  0.179892E+02  0.441136E-06 -0.163475E-07
  0.335854E+02  0.189616E+02  0.670539E-06 -0.512875E-07
  0.335854E+02  0.199340E+02  0.579300E-06 -0.407175E-07
  0.360732E+02  0.486043E+00  0.519951E-06  0.906019E-08
  0.360732E+02  0.145813E+01  0.305296E-06 -0.117064E-09
  0.360732E+02  0.243022E+01  0.308558E-06 -0.234706E-07
  0.360732E+02  0.340230E+01  0.237995E-06  0.246693E-07
  0.360732E+02  0.437439E+01  0.175192E-06  0.287880E-07
  0.360732E+02  0.534647E+01  0.304910E-06 -0.983193E-09
  0.360732E+02  0.631856E+01  0.164251E-06 -0.183801E-08
  0.360732E+02  0.729065E+01  0.208220E-06 -0.755217E-08
  0.360732E+02  0.826273E+01  0.361951E-06 -0.367018E-07
  0.360732E+02  0.923482E+01  0.676046E-06 -0.607632E-07
  0.360732E+02  0.102069E+02  0.370115E-06 -0.180404E-07
  0.360732E+02  0.111790E+02  0.143145E-07  0.844767E-08
  0.360732E+02  0.121511E+02  0.133212E-07  0.952491E-08
  0.360732E+02  0.131232E+02  0.303933E-08  0.590900E-08
  0.360732E+02  0.140952E+02  0.930674E-09  0.438910E-08
  0.360732E+02  0.150673E+02  0.264731E-06  0.707642E-08
  0.360732E+02  0.160394E+02  0.267046E-06  0.998998E-08
  0.360732E+02  0.170115E+02  0.223174E-06 -0.237225E-07
  0.360732E+02  0.179836E+02  0.489506E-06 -0.420980E-07
  0.360732E+02  0.189557E+02  0.855035E-06  0.838510E-07
  0.360732E+02  0.199278E+02  0.663633E-06  0.383601E-07
  0.385610E+02  0.485883E+00  0.420372E-06 -0.795655E-08
  0.385610E+02  0.145765E+01  0.502228E-06 -0.304061E-07
  0.385610E+02  0.242942E+01  0.129291E-06  0.769006E-08
  0.385610E+02  0.340118E+01  0.112455E-06  0.160371E-07
  0.385610E+02  0.437295E+01  0.294546E-06  0.742448E-08
  0.385610E+02  0.534471E+01  0.188608E-06  0.602392E-08
  0.385610E+02  0.631648E+01  0.178217E-06  0.166168E-07
  0.385610E+02  0.728825E+01  0.206290E-06  0.679507E-08
  0.385610E+02  0.826001E+01  0.437400E-06  0.445990E-08
  0.385610E+02  0.923178E+01  0.488751E-06  0.319216E-07
  0.385610E+02  0.102035E+02  0.339566E-06  0.213707E-07
  0.385610E+02  0.111753E+02  0.542969E-08  0.175150E-08
  0.385610E+02  0.121471E+02  0.122563E-07  0.312440E-08
  0.385610E+02  0.131188E+02  0.300576E-08  0.343009E-08
  0.385610E+02  0.140906E+02  0.609957E-09  0.199343E-08
  0.385610E+02  0.150624E+02  0.215685E-06  0.158142E-08
  0.385610E+02  0.160341E+02  0.172935E-06  0.208008E-08
  0.385610E+02  0.170059E+02  0.317704E-06  0.343580E-08
  0.385610E+02  0.179777E+02  0.232120E-06  0.202381E-07
  0.385610E+02  0.189494E+02  0.294724E-06  0.250494E-07
  0.385610E+02  0.199212E+02  0.100450E-05  0.381531E-07
  0.410488E+02  0.485718E+00  0.634967E-06  0.308599E-08
  0.410488E+02  0.145715E+01  0.213371E-06  0.437247E-07
  0.410488E+02  0.242859E+01  0.129330E-06  0.311087E-07
  0.410488E+02  0.340002E+01  0.177022E-06 -0.331372E-08
  0.410488E+02  0.437146E+01  0.212489E-06 -0.876515E-08
  0.410488E+02  0.534289E+01  0.146114E-06 -0.178554E-08
  0.410488E+02  0.631433E+01  0.148416E-06 -0.199808E-08
  0.410488E+02  0.728576E+01  0.232152E-06 -0.486740E-09
  0.410488E+02  0.825720E+01  0.300638E-06  0.975320E-08
  0.410488E+02  0.922863E+01  0.344010E-06  0.420153E-07
  0.410488E+02  0.102001E+02  0.498535E-06  0.391567E-07
  0.410488E+02  0.111715E+02  0.152377E-08  0.164357E-08
  0.410488E+02  0.121429E+02  0.102375E-07  0.339041E-08
  0.410488E+02  0.131144E+02  0.182795E-08  0.178571E-08
  0.410488E+02  0.140858E+02  0.475485E-09  0.126131E-08
  0.410488E+02  0.150572E+02  0.262074E-06  0.124492E-07
  0.410488E+02  0.160287E+02  0.192587E-06  0.937254E-08
  0.410488E+02  0.170001E+02  0.236421E-06  0.246702E-08
  0.410488E+02  0.179716E+02  0.227388E-06  0.140647E-08
  0.410488E+02  0.189430E+02  0.363207E-06 -0.255256E-08
  0.410488E+02  0.199144E+02  0.689787E-06 -0.127102E-07
  0.435366E+02  0.485384E+00  0.352431E-06  0.203018E-07
  0.435366E+02  0.145615E+01  0.205915E-06  0.350581E-07
  0.435366E+02  0.242692E+01  0.217064E-06  0.760447E-08
  0.435366E+02  0.339769E+01  0.216544E-06 -0.168775E-07
  0.435366E+02  0.436846E+01  0.185612E-06 -0.208745E-07
  0.435366E+02  0.533923E+01  0.167109E-06 -0.155796E-07
  0.435366E+02  0.631000E+01  0.151903E-06 -0.137146E-07
  0.435366E+02  0.728076E+01  0.239384E-06 -0.731255E-08
  0.435366E+02  0.825153E+01  0.291949E-06  0.160119E-07
  0.435366E+02  0.922230E+01  0.344398E-06  0.149253E-07
  0.435366E+02  0.101931E+02  0.697383E-06 -0.689940E-09
  0.435366E+02  0.111638E+02  0.107658E-08  0.266425E-08
  0.435366E+02  0.121346E+02  0.401317E-08  0.327658E-08
  0.435366E+02  0.131054E+02  0.545641E-08  0.480864E-08
  0.435366E+02  0.140761E+02  0.497854E-09  0.156851E-08
  0.435366E+02  0.150469E+02  0.186585E-06  0.469395E-08
  0.435366E+02  0.160177E+02  0.292422E-06 -0.546479E-08
  0.435366E+02  0.169884E+02  0.337912E-06 -0.233764E-07
  0.435366E+02  0.179592E+02  0.203046E-06 -0.293081E-07
  0.435366E+02  0.189300E+02  0.407288E-06 -0.780450E-07
  0.435366E+02  0.199008E+02  0.924283E-06 -0.816313E-07
  0.460244E+02  0.485172E+00  0.180592E-06  0.596478E-09
  0.460244E+02  0.145552E+01  0.181871E-06 -0.118959E-07
  0.460244E+02  0.242586E+01  0.161712E-06 -0.278098E-07
  0.460244E+02  0.339620E+01  0.216450E-06 -0.385978E-07
  0.460244E+02  0.436655E+01  0.160502E-06 -0.354084E-07
  0.460244E+02  0.533689E+01  0.167396E-06 -0.468423E-07
  0.460244E+02  0.630723E+01  0.196510E-06 -0.585180E-07
  0.460244E+02  0.727758E+01  0.161966E-06 -0.282931E-07
  0.460244E+02  0.824792E+01  0.251325E-06 -0.115466E-07
  0.460244E+02  0.921827E+01  0.657496E-06 -0.532751E-07
  0.460244E+02  0.101886E+02  0.615664E-06 -0.350881E-07
  0.460244E+02  0.111590E+02  0.627762E-09  0.298026E-08
  0.460244E+02  0.121293E+02  0.187436E-08  0.426884E-08
  0.460244E+02  0.130996E+02  0.298499E-08  0.439134E-08
  0.460244E+02  0.140700E+02  0.213106E-08  0.690796E-08
  0.460244E+02  0.150403E+02  0.175557E-06 -0.262374E-08
  0.460244E+02  0.160107E+02  0.331034E-06 -0.193155E-07
  0.460244E+02  0.169810E+02  0.183055E-06 -0.261305E-07
  0.460244E+02  0.179514E+02  0.340906E-06 -0.774567E-07
  0.460244E+02  0.189217E+02  0.540473E-06 -0.107749E-06
  0.460244E+02  0.198920E+02  0.535527E-06 -0.415109E-07
  0.485122E+02  0.484699E+00  0.145812E-06 -0.353468E-08
  0.485122E+02  0.145410E+01  0.219082E-06 -0.199751E-07
  0.485122E+02  0.242349E+01  0.193393E-06 -0.429191E-07
  0.485122E+02  0.339289E+01  0.155517E-06 -0.406555E-07
  0.485122E+02  0.436229E+01  0.190906E-06 -0.515338E-07
  0.485122E+02  0.533168E+01  0.173885E-06 -0.544779E-07
  0.485122E+02  0.630108E+01  0.891929E-07 -0.402531E-07
  0.485122E+02  0.727048E+01  0.125302E-06 -0.465104E-07
  0.485122E+02  0.823988E+01  0.274980E-06 -0.780701E-07
  0.485122E+02  0.920927E+01  0.524506E-06 -0.272034E-07
  0.485122E+02  0.101787E+02  0.429969E-06  0.104882E-07
  0.485122E+02  0.111481E+02  0.940384E-09  0.391534E-08
  0.485122E+02  0.121175E+02  0.866592E-09  0.390309E-08
  0.485122E+02  0.130869E+02  0.107063E-08  0.274457E-08
  0.485122E+02  0.140563E+02  0.643935E-09  0.251373E-08
  0.485122E+02  0.150257E+02  0.171600E-06 -0.101700E-07
  0.485122E+02  0.159951E+02  0.246505E-06 -0.514703E-09
  0.485122E+02  0.169645E+02  0.362369E-06  0.648813E-08
  0.485122E+02  0.179338E+02  0.391382E-06 -0.203146E-07
  0.485122E+02  0.189032E+02  0.298888E-06 -0.514842E-08
  0.485122E+02  0.198726E+02  0.466463E-06 -0.797873E-08
  0.510000E+02  0.483898E+00  0.141851E-06 -0.391500E-08
  0.510000E+02  0.145170E+01  0.304542E-06 -0.229453E-07
  0.510000E+02  0.241949E+01  0.179054E-06 -0.338568E-07
  0.510000E+02  0.338729E+01  0.173568E-06 -0.468671E-07
  0.510000E+02  0.435509E+01  0.152995E-06 -0.409828E-07
  0.510000E+02  0.532288E+01  0.157502E-06 -0.417286E-07
  0.510000E+02  0.629068E+01  0.767848E-07 -0.446079E-07
  0.510000E+02  0.725848E+01  0.181962E-06 -0.720737E-07
  0.510000E+02  0.822627E+01  0.163286E-06 -0.414537E-07
  0.510000E+02  0.919407E+01  0.219332E-06 -0.300711E-07
  0.510000E+02  0.101619E+02  0.373906E-06 -0.821559E-08
  0.510000E+02  0.111297E+02  0.183638E-08  0.427726E-08
  0.510000E+02  0.120975E+02  0.789408E-09  0.203263E-08
  0.510000E+02  0.130653E+02  0.125254E-08  0.224630E-08
  0.510000E+02  0.140331E+02  0.116595E-08  0.304531E-08
  0.510000E+02  0.150009E+02  0.259187E-06  0.931565E-08
  0.510000E+02  0.159686E+02  0.119399E-06  0.108319E-07
  0.510000E+02  0.169364E+02  0.303977E-06  0.306887E-07
  0.510000E+02  0.179042E+02  0.487740E-06  0.422018E-07
  0.510000E+02  0.188720E+02  0.423487E-06  0.190387E-08
  0.510000E+02  0.198398E+02  0.594425E-06 -0.176284E-07
  0.534878E+02  0.483366E+00  0.153726E-06 -0.665957E-08
  0.534878E+02  0.145010E+01  0.305313E-06 -0.266265E-07
  0.534878E+02  0.241683E+01  0.262452E-06 -0.253521E-07
  0.534878E+02  0.338356E+01  0.186928E-06 -0.317118E-07
  0.534878E+02  0.435030E+01  0.173273E-06 -0.454181E-07
  0.534878E+02  0.531703E+01  0.172640E-06 -0.434908E-07
  0.534878E+02  0.628376E+01  0.118296E-06 -0.450894E-07
  0.534878E+02  0.725050E+01  0.109298E-06 -0.360247E-07
  0.534878E+02  0.821723E+01  0.168798E-06 -0.431102E-07
  0.534878E+02  0.918396E+01  0.211733E-06 -0.367251E-07
  0.534878E+02  0.101507E+02  0.227092E-06 -0.109895E-07
  0.534878E+02  0.111174E+02  0.309244E-09  0.108772E-08
  0.534878E+02  0.120842E+02  0.140140E-08  0.356732E-08
  0.534878E+02  0.130509E+02  0.116366E-08  0.302375E-08
  0.534878E+02  0.140176E+02  0.135308E-08  0.328544E-08
  0.534878E+02  0.149844E+02  0.190929E-06  0.526857E-08
  0.534878E+02  0.159511E+02  0.249771E-06 -0.111028E-07
  0.534878E+02  0.169178E+02  0.351769E-06 -0.680834E-07
  0.534878E+02  0.178846E+02  0.500613E-06 -0.118632E-06
  0.534878E+02  0.188513E+02  0.399144E-06 -0.812477E-07
  0.534878E+02  0.198180E+02  0.487625E-06 -0.415357E-07
  0.559756E+02  0.482968E+00  0.222111E-06 -0.131565E-07
  0.559756E+02  0.144890E+01  0.231677E-06 -0.157518E-07
  0.559756E+02  0.241484E+01  0.179605E-06 -0.135252E-07
  0.559756E+02  0.338078E+01  0.206049E-06 -0.156069E-07
  0.559756E+02  0.434671E+01  0.148471E-06 -0.724034E-08
  0.559756E+02  0.531265E+01  0.135487E-06 -0.374322E-08
  0.559756E+02  0.627858E+01  0.140031E-06 -0.757521E-08
  0.559756E+02  0.724452E+01  0.157612E-06 -0.267006E-07
  0.559756E+02  0.821045E+01  0.113335E-06 -0.154092E-07
  0.559756E+02  0.917639E+01  0.145201E-06 -0.307372E-08
  0.559756E+02  0.101423E+02  0.194425E-06  0.167144E-08
  0.559756E+02  0.111083E+02  0.211946E-09  0.316133E-08
  0.559756E+02  0.120742E+02  0.418759E-09  0.262339E-08
  0.559756E+02  0.130401E+02  0.713006E-09  0.251765E-08
  0.559756E+02  0.140061E+02  0.707799E-09  0.375255E-08
  0.559756E+02  0.149720E+02  0.520634E-06 -0.713447E-07
  0.559756E+02  0.159379E+02  0.457636E-06 -0.173171E-06
  0.559756E+02  0.169039E+02  0.548213E-06 -0.191745E-06
  0.559756E+02  0.178698E+02  0.321904E-06 -0.914733E-07
  0.559756E+02  0.188357E+02  0.254169E-06 -0.585026E-07
  0.559756E+02  0.198017E+02  0.268794E-06 -0.407756E-07
  0.584634E+02  0.482460E+00  0.264954E-06 -0.578289E-09
  0.584634E+02  0.144738E+01  0.247977E-06  0.264694E-09
  0.584634E+02  0.241230E+01  0.205918E-06  0.366075E-08
  0.584634E+02  0.337722E+01  0.154538E-06  0.226672E-07
  0.584634E+02  0.434214E+01  0.131648E-06  0.364523E-07
  0.584634E+02  0.530706E+01  0.176629E-06  0.359092E-07
  0.584634E+02  0.627197E+01  0.166463E-06  0.190143E-07
  0.584634E+02  0.723689E+01  0.162228E-06  0.176751E-07
  0.584634E+02  0.820181E+01  0.103498E-06  0.106278E-07
  0.584634E+02  0.916673E+01  0.147099E-06  0.604134E-08
  0.584634E+02  0.101317E+02  0.194007E-06  0.327921E-08
  0.584634E+02  0.110966E+02  0.178084E-09  0.142514E-08
  0.584634E+02  0.120615E+02  0.168143E-09  0.167434E-08
  0.584634E+02  0.130264E+02  0.176783E-09  0.290377E-08
  0.584634E+02  0.139913E+02  0.244940E-09  0.226851E-08
  0.584634E+02  0.149562E+02  0.891875E-06 -0.173106E-07
  0.584634E+02  0.159212E+02  0.554352E-06 -0.624853E-07
  0.584634E+02  0.168861E+02  0.336164E-06 -0.609489E-07
  0.584634E+02  0.178510E+02  0.254399E-06 -0.526534E-07
  0.584634E+02  0.188159E+02  0.247472E-06 -0.223801E-07
  0.584634E+02  0.197808E+02  0.121713E-06 -0.129790E-07
  0.609512E+02  0.482077E+00  0.284025E-06 -0.934461E-08
  0.609512E+02  0.144623E+01  0.243827E-06 -0.681224E-08
  0.609512E+02  0.241038E+01  0.114582E-06  0.813645E-08
  0.609512E+02  0.337454E+01  0.120217E-06  0.147346E-07
  0.609512E+02  0.433869E+01  0.102619E-06  0.178127E-07
  0.609512E+02  0.530284E+01  0.181974E-06  0.271186E-07
  0.609512E+02  0.626700E+01  0.205554E-06  0.390051E-07
  0.609512E+02  0.723115E+01  0.158583E-06  0.359778E-07
  0.609512E+02  0.819531E+01  0.151821E-06  0.348051E-07
  0.609512E+02  0.915946E+01  0.167732E-06  0.187076E-07
  0.609512E+02  0.101236E+02  0.223417E-06  0.617382E-08
  0.609512E+02  0.110878E+02  0.124382E-09  0.191593E-08
  0.609512E+02  0.120519E+02  0.318825E-09  0.287044E-08
  0.609512E+02  0.130161E+02  0.128719E-09  0.123227E-08
  0.609512E+02  0.139802E+02  0.280086E-09  0.228631E-08
  0.609512E+02  0.149444E+02  0.705617E-06  0.431407E-07
  0.609512E+02  0.159085E+02  0.741176E-06  0.104738E-06
  0.609512E+02  0.168727E+02  0.513380E-06  0.708018E-07
  0.609512E+02  0.178368E+02  0.137400E-06  0.100160E-07
  0.609512E+02  0.188010E+02  0.130413E-06  0.205264E-07