variables="x","h","c"
zone i=     42,T= "1dxhc;t= 0.1500E+03y,z:   1   1"
    0.00000E+00    0.50000E+00    0.00000E+00
    0.24878E+01    0.49646E+00    0.61377E-19
    0.49756E+01    0.49128E+00    0.23603E-18
    0.74634E+01    0.48768E+00    0.63234E-18
    0.99512E+01    0.48109E+00    0.26640E-17
    0.12439E+02    0.46865E+00    0.11042E-16
    0.14927E+02    0.45992E+00    0.41802E-16
    0.17415E+02    0.45779E+00    0.10155E-15
    0.19902E+02    0.45629E+00    0.25206E-15
    0.22390E+02    0.45294E+00    0.74875E-15
    0.24878E+02    0.44842E+00    0.23792E-14
    0.27366E+02    0.44204E+00    0.96026E-14
    0.29854E+02    0.43887E+00    0.26743E-13
    0.32341E+02    0.43609E+00    0.84650E-13
    0.34829E+02    0.42895E+00    0.10034E-11
    0.37317E+02    0.42442E+00    0.44755E-11
    0.39805E+02    0.41929E+00    0.18596E-10
    0.42293E+02    0.41404E+00    0.14008E-09
    0.44780E+02    0.40805E+00    0.52647E-09
    0.47268E+02    0.40313E+00    0.16750E-08
    0.49756E+02    0.39993E+00    0.23492E-08
    0.52244E+02    0.39498E+00    0.50050E-08
    0.54732E+02    0.39066E+00    0.86866E-08
    0.57220E+02    0.38808E+00    0.21925E-07
    0.59707E+02    0.38521E+00    0.63889E-07
    0.62195E+02    0.37590E+00    0.24173E-06
    0.64683E+02    0.36326E+00    0.14901E-05
    0.67171E+02    0.34854E+00    0.13013E-04
    0.69659E+02    0.33763E+00    0.68967E-04
    0.72146E+02    0.33136E+00    0.27030E-03
    0.74634E+02    0.32611E+00    0.58570E-03
    0.77122E+02    0.32274E+00    0.11744E-02
    0.79610E+02    0.31518E+00    0.17388E-02
    0.82098E+02    0.30995E+00   -0.16340E-02
    0.84585E+02    0.31638E+00    0.67805E-01
    0.87073E+02    0.33575E+00    0.19476E+00
    0.89561E+02    0.35347E+00    0.36080E+00
    0.92049E+02    0.37367E+00    0.60814E+00
    0.94537E+02    0.38453E+00    0.76619E+00
    0.97024E+02    0.39291E+00    0.82339E+00
    0.99512E+02    0.40568E+00    0.95514E+00
    0.10200E+03    0.40014E+00    0.10000E+01
zone i=     42,T= "1dxhc;t= 0.1500E+03y,z:   1  12"
    0.00000E+00    0.50000E+00    0.00000E+00
    0.24878E+01    0.49613E+00    0.27238E-21
    0.49756E+01    0.49239E+00    0.76195E-21
    0.74634E+01    0.48703E+00    0.38387E-20
    0.99512E+01    0.48233E+00    0.16500E-19
    0.12439E+02    0.47556E+00    0.67283E-19
    0.14927E+02    0.46568E+00    0.43773E-18
    0.17415E+02    0.45886E+00    0.25670E-17
    0.19902E+02    0.45354E+00    0.77724E-17
    0.22390E+02    0.45012E+00    0.30063E-16
    0.24878E+02    0.44581E+00    0.16434E-16
    0.27366E+02    0.44164E+00    0.17858E-15
    0.29854E+02    0.43786E+00    0.26216E-14
    0.32341E+02    0.43367E+00    0.96901E-14
    0.34829E+02    0.42769E+00    0.62800E-13
    0.37317E+02    0.42279E+00    0.37919E-12
    0.39805E+02    0.41956E+00    0.10671E-11
    0.42293E+02    0.41683E+00    0.25104E-11
    0.44780E+02    0.41323E+00    0.13478E-10
    0.47268E+02    0.40743E+00    0.53521E-10
    0.49756E+02    0.39897E+00    0.22380E-09
    0.52244E+02    0.39257E+00    0.12630E-08
    0.54732E+02    0.38853E+00    0.19299E-08
    0.57220E+02    0.38284E+00    0.28805E-08
    0.59707E+02    0.37808E+00    0.41477E-09
    0.62195E+02    0.37338E+00   -0.67002E-08
    0.64683E+02    0.36820E+00    0.85741E-08
    0.67171E+02    0.36139E+00    0.18751E-08
    0.69659E+02    0.34698E+00    0.89696E-08
    0.72146E+02    0.33905E+00   -0.11469E-06
    0.74634E+02    0.32268E+00   -0.43307E-06
    0.77122E+02    0.31002E+00   -0.71043E-05
    0.79610E+02    0.29830E+00    0.90541E-04
    0.82098E+02    0.28284E+00    0.10675E-02
    0.84585E+02    0.27297E+00    0.80087E-02
    0.87073E+02    0.26042E+00    0.20570E-01
    0.89561E+02    0.24510E+00    0.40336E-01
    0.92049E+02    0.23580E+00    0.48057E-01
    0.94537E+02    0.22389E+00    0.18817E+00
    0.97024E+02    0.21045E+00    0.26974E+00
    0.99512E+02    0.18224E+00    0.55608E+00
    0.10200E+03    0.16006E+00    0.10000E+01
zone i=     42,T= "1dxhc;t= 0.1500E+03y,z:   1  22"
    0.00000E+00    0.49853E+00    0.47468E-16
    0.24878E+01    0.49311E+00    0.17186E-15
    0.49756E+01    0.48495E+00    0.70568E-15
    0.74634E+01    0.47881E+00    0.30514E-14
    0.99512E+01    0.47300E+00    0.10288E-13
    0.12439E+02    0.46784E+00    0.39627E-13
    0.14927E+02    0.46358E+00    0.15471E-12
    0.17415E+02    0.45801E+00    0.48346E-12
    0.19902E+02    0.44888E+00    0.20010E-11
    0.22390E+02    0.43791E+00    0.48118E-11
    0.24878E+02    0.42770E+00    0.81292E-11
    0.27366E+02    0.41387E+00    0.13592E-10
    0.29854E+02    0.40333E+00    0.18494E-10
    0.32341E+02    0.39043E+00    0.18985E-10
    0.34829E+02    0.38266E+00    0.72576E-11
    0.37317E+02    0.37381E+00    0.97579E-11
    0.39805E+02    0.36364E+00    0.20378E-10
    0.42293E+02    0.35172E+00    0.14380E-10
    0.44780E+02    0.34030E+00   -0.17564E-10
    0.47268E+02    0.33214E+00   -0.14264E-09
    0.49756E+02    0.32727E+00   -0.60495E-09
    0.52244E+02    0.32058E+00   -0.29224E-08
    0.54732E+02    0.30705E+00   -0.12357E-07
    0.57220E+02    0.29582E+00   -0.27156E-07
    0.59707E+02    0.27729E+00   -0.55359E-07
    0.62195E+02    0.26670E+00   -0.54664E-07
    0.64683E+02    0.24739E+00   -0.10408E-06
    0.67171E+02    0.22746E+00    0.89189E-08
    0.69659E+02    0.20893E+00    0.95180E-07
    0.72146E+02    0.19850E+00    0.20132E-06
    0.74634E+02    0.19400E+00    0.55535E-06
    0.77122E+02    0.18530E+00    0.86976E-06
    0.79610E+02    0.17765E+00    0.15286E-05
    0.82098E+02    0.16230E+00    0.67519E-05
    0.84585E+02    0.15035E+00    0.35989E-05
    0.87073E+02    0.13784E+00    0.97430E-06
    0.89561E+02    0.12351E+00    0.21658E-04
    0.92049E+02    0.11234E+00   -0.98954E-05
    0.94537E+02    0.95726E-01   -0.11847E-03
    0.97024E+02    0.63923E-01   -0.19973E-03
    0.99512E+02    0.32414E-01    0.15051E-03
    0.10200E+03    0.68771E-02    0.58481E-03
zone i=     42,T= "1dxhc;t= 0.3000E+03y,z:   1   1"
    0.00000E+00    0.50000E+00    0.00000E+00
    0.24878E+01    0.49645E+00    0.72702E-16
    0.49756E+01    0.49127E+00    0.24340E-15
    0.74634E+01    0.48767E+00    0.57328E-15
    0.99512E+01    0.48108E+00    0.20665E-14
    0.12439E+02    0.46863E+00    0.70426E-14
    0.14927E+02    0.45989E+00    0.22773E-13
    0.17415E+02    0.45775E+00    0.50967E-13
    0.19902E+02    0.45626E+00    0.11588E-12
    0.22390E+02    0.45290E+00    0.29962E-12
    0.24878E+02    0.44839E+00    0.83028E-12
    0.27366E+02    0.44201E+00    0.27858E-11
    0.29854E+02    0.43885E+00    0.64145E-11
    0.32341E+02    0.43608E+00    0.16570E-10
    0.34829E+02    0.42895E+00    0.14571E-09
    0.37317E+02    0.42444E+00    0.47947E-09
    0.39805E+02    0.41933E+00    0.15684E-08
    0.42293E+02    0.41409E+00    0.89891E-08
    0.44780E+02    0.40813E+00    0.26791E-07
    0.47268E+02    0.40323E+00    0.75184E-07
    0.49756E+02    0.40005E+00    0.11161E-06
    0.52244E+02    0.39512E+00    0.24096E-06
    0.54732E+02    0.39084E+00    0.44616E-06
    0.57220E+02    0.38828E+00    0.10210E-05
    0.59707E+02    0.38544E+00    0.24754E-05
    0.62195E+02    0.37625E+00    0.70366E-05
    0.64683E+02    0.36386E+00    0.30774E-04
    0.67171E+02    0.34957E+00    0.18008E-03
    0.69659E+02    0.33908E+00    0.67802E-03
    0.72146E+02    0.33316E+00    0.20946E-02
    0.74634E+02    0.32829E+00    0.40394E-02
    0.77122E+02    0.32526E+00    0.76036E-02
    0.79610E+02    0.31975E+00    0.10050E-01
    0.82098E+02    0.32266E+00    0.15846E+00
    0.84585E+02    0.33763E+00    0.28213E+00
    0.87073E+02    0.35869E+00    0.42399E+00
    0.89561E+02    0.37275E+00    0.56800E+00
    0.92049E+02    0.38693E+00    0.74379E+00
    0.94537E+02    0.39410E+00    0.85100E+00
    0.97024E+02    0.39926E+00    0.88209E+00
    0.99512E+02    0.40804E+00    0.98499E+00
    0.10200E+03    0.40014E+00    0.10000E+01
zone i=     42,T= "1dxhc;t= 0.3000E+03y,z:   1  12"
    0.00000E+00    0.50000E+00    0.00000E+00
    0.24878E+01    0.49613E+00    0.38800E-18
    0.49756E+01    0.49239E+00    0.94560E-18
    0.74634E+01    0.48702E+00    0.41095E-17
    0.99512E+01    0.48232E+00    0.13846E-16
    0.12439E+02    0.47554E+00    0.44505E-16
    0.14927E+02    0.46565E+00    0.22601E-15
    0.17415E+02    0.45883E+00    0.10135E-14
    0.19902E+02    0.45351E+00    0.23193E-14
    0.22390E+02    0.45008E+00    0.73852E-14
    0.24878E+02    0.44578E+00    0.29200E-14
    0.27366E+02    0.44161E+00    0.34667E-13
    0.29854E+02    0.43784E+00    0.39015E-12
    0.32341E+02    0.43366E+00    0.11453E-11
    0.34829E+02    0.42769E+00    0.59809E-11
    0.37317E+02    0.42281E+00    0.27641E-10
    0.39805E+02    0.41959E+00    0.61678E-10
    0.42293E+02    0.41687E+00    0.12658E-09
    0.44780E+02    0.41329E+00    0.54349E-09
    0.47268E+02    0.40751E+00    0.17046E-08
    0.49756E+02    0.39909E+00    0.56924E-08
    0.52244E+02    0.39273E+00    0.24960E-07
    0.54732E+02    0.38873E+00    0.26115E-07
    0.57220E+02    0.38308E+00    0.25869E-07
    0.59707E+02    0.37837E+00   -0.29646E-07
    0.62195E+02    0.37372E+00   -0.69540E-07
    0.64683E+02    0.36859E+00    0.91682E-07
    0.67171E+02    0.36183E+00   -0.49294E-07
    0.69659E+02    0.34747E+00   -0.18141E-06
    0.72146E+02    0.33943E+00   -0.15389E-05
    0.74634E+02    0.32245E+00   -0.57026E-05
    0.77122E+02    0.30873E+00   -0.16372E-04
    0.79610E+02    0.29522E+00    0.54431E-03
    0.82098E+02    0.27633E+00    0.31939E-02
    0.84585E+02    0.26452E+00    0.11954E-01
    0.87073E+02    0.25062E+00    0.29039E-01
    0.89561E+02    0.23511E+00    0.56108E-01
    0.92049E+02    0.22632E+00    0.69416E-01
    0.94537E+02    0.21558E+00    0.21518E+00
    0.97024E+02    0.20383E+00    0.29767E+00
    0.99512E+02    0.17924E+00    0.56593E+00
    0.10200E+03    0.16006E+00    0.10000E+01
zone i=     42,T= "1dxhc;t= 0.3000E+03y,z:   1  22"
    0.00000E+00    0.49852E+00    0.40549E-14
    0.24878E+01    0.49310E+00    0.88703E-14
    0.49756E+01    0.48492E+00    0.28745E-13
    0.74634E+01    0.47877E+00    0.80309E-13
    0.99512E+01    0.47296E+00    0.17436E-12
    0.12439E+02    0.46780E+00    0.36199E-12
    0.14927E+02    0.46353E+00    0.36841E-12
    0.17415E+02    0.45795E+00   -0.79828E-12
    0.19902E+02    0.44880E+00   -0.94659E-11
    0.22390E+02    0.43782E+00   -0.29316E-10
    0.24878E+02    0.42760E+00   -0.57636E-10
    0.27366E+02    0.41375E+00   -0.10960E-09
    0.29854E+02    0.40320E+00   -0.17040E-09
    0.32341E+02    0.39029E+00   -0.21970E-09
    0.34829E+02    0.38251E+00   -0.18127E-09
    0.37317E+02    0.37365E+00   -0.41485E-09
    0.39805E+02    0.36347E+00   -0.99757E-09
    0.42293E+02    0.35153E+00   -0.20053E-08
    0.44780E+02    0.34011E+00   -0.45884E-08
    0.47268E+02    0.33193E+00   -0.11623E-07
    0.49756E+02    0.32707E+00   -0.26825E-07
    0.52244E+02    0.32036E+00   -0.73276E-07
    0.54732E+02    0.30682E+00   -0.18808E-06
    0.57220E+02    0.29558E+00   -0.30982E-06
    0.59707E+02    0.27704E+00   -0.53210E-06
    0.62195E+02    0.26644E+00   -0.55423E-06
    0.64683E+02    0.24712E+00   -0.96418E-06
    0.67171E+02    0.22717E+00   -0.57809E-06
    0.69659E+02    0.20863E+00   -0.91804E-07
    0.72146E+02    0.19819E+00    0.40462E-07
    0.74634E+02    0.19368E+00    0.12074E-05
    0.77122E+02    0.18498E+00    0.49781E-06
    0.79610E+02    0.17733E+00    0.32133E-05
    0.82098E+02    0.16198E+00    0.78560E-05
    0.84585E+02    0.15003E+00    0.42122E-06
    0.87073E+02    0.13752E+00   -0.79311E-07
    0.89561E+02    0.12320E+00    0.21078E-04
    0.92049E+02    0.11205E+00   -0.22290E-04
    0.94537E+02    0.95465E-01   -0.10549E-03
    0.97024E+02    0.63728E-01   -0.16030E-03
    0.99512E+02    0.32306E-01    0.13451E-03
    0.10200E+03    0.68521E-02    0.50991E-03
zone i=     42,T= "1dxhc;t= 0.4500E+03y,z:   1   1"
    0.00000E+00    0.50000E+00    0.00000E+00
    0.24878E+01    0.49646E+00    0.53758E-14
    0.49756E+01    0.49129E+00    0.16453E-13
    0.74634E+01    0.48769E+00    0.35810E-13
    0.99512E+01    0.48112E+00    0.11572E-12
    0.12439E+02    0.46869E+00    0.34355E-12
    0.14927E+02    0.45998E+00    0.99497E-12
    0.17415E+02    0.45785E+00    0.21053E-11
    0.19902E+02    0.45635E+00    0.44963E-11
    0.22390E+02    0.45301E+00    0.10628E-10
    0.24878E+02    0.44851E+00    0.26854E-10
    0.27366E+02    0.44215E+00    0.79144E-10
    0.29854E+02    0.43900E+00    0.16085E-09
    0.32341E+02    0.43624E+00    0.36328E-09
    0.34829E+02    0.42915E+00    0.25459E-08
    0.37317E+02    0.42466E+00    0.67643E-08
    0.39805E+02    0.41958E+00    0.18934E-07
    0.42293E+02    0.41438E+00    0.89387E-07
    0.44780E+02    0.40846E+00    0.22980E-06
    0.47268E+02    0.40359E+00    0.59684E-06
    0.49756E+02    0.40043E+00    0.92022E-06
    0.52244E+02    0.39555E+00    0.19878E-05
    0.54732E+02    0.39130E+00    0.37747E-05
    0.57220E+02    0.38876E+00    0.81290E-05
    0.59707E+02    0.38596E+00    0.17609E-04
    0.62195E+02    0.37693E+00    0.42540E-04
    0.64683E+02    0.36484E+00    0.15159E-03
    0.67171E+02    0.35105E+00    0.70652E-03
    0.69659E+02    0.34107E+00    0.22602E-02
    0.72146E+02    0.33555E+00    0.63889E-02
    0.74634E+02    0.33117E+00    0.12541E-01
    0.77122E+02    0.32864E+00    0.27905E-01
    0.79610E+02    0.32627E+00    0.45721E-01
    0.82098E+02    0.33560E+00    0.32175E+00
    0.84585E+02    0.35148E+00    0.45914E+00
    0.87073E+02    0.36961E+00    0.56800E+00
    0.89561E+02    0.38106E+00    0.67809E+00
    0.92049E+02    0.39221E+00    0.80922E+00
    0.94537E+02    0.39778E+00    0.88944E+00
    0.97024E+02    0.40162E+00    0.91148E+00
    0.99512E+02    0.40885E+00    0.99291E+00
    0.10200E+03    0.40014E+00    0.10000E+01
zone i=     42,T= "1dxhc;t= 0.4500E+03y,z:   1  12"
    0.00000E+00    0.50000E+00    0.00000E+00
    0.24878E+01    0.49613E+00    0.33147E-16
    0.49756E+01    0.49240E+00    0.75577E-16
    0.74634E+01    0.48705E+00    0.29138E-15
    0.99512E+01    0.48235E+00    0.82946E-15
    0.12439E+02    0.47559E+00    0.22676E-14
    0.14927E+02    0.46572E+00    0.96822E-14
    0.17415E+02    0.45892E+00    0.35858E-13
    0.19902E+02    0.45361E+00    0.68515E-13
    0.22390E+02    0.45020E+00    0.19340E-12
    0.24878E+02    0.44591E+00    0.73079E-13
    0.27366E+02    0.44176E+00    0.78159E-12
    0.29854E+02    0.43800E+00    0.71052E-11
    0.32341E+02    0.43384E+00    0.17814E-10
    0.34829E+02    0.42790E+00    0.78617E-10
    0.37317E+02    0.42305E+00    0.29525E-09
    0.39805E+02    0.41984E+00    0.56366E-09
    0.42293E+02    0.41714E+00    0.10575E-08
    0.44780E+02    0.41358E+00    0.37631E-08
    0.47268E+02    0.40784E+00    0.98523E-08
    0.49756E+02    0.39948E+00    0.27726E-07
    0.52244E+02    0.39318E+00    0.99689E-07
    0.54732E+02    0.38921E+00    0.80920E-07
    0.57220E+02    0.38362E+00    0.59214E-07
    0.59707E+02    0.37897E+00   -0.10107E-06
    0.62195E+02    0.37438E+00   -0.19864E-06
    0.64683E+02    0.36931E+00    0.22283E-06
    0.67171E+02    0.36263E+00   -0.25252E-06
    0.69659E+02    0.34832E+00   -0.55358E-06
    0.72146E+02    0.34019E+00   -0.23719E-05
    0.74634E+02    0.32261E+00   -0.17411E-04
    0.77122E+02    0.30791E+00    0.77366E-04
    0.79610E+02    0.29307E+00    0.11250E-02
    0.82098E+02    0.27216E+00    0.39152E-02
    0.84585E+02    0.25967E+00    0.12266E-01
    0.87073E+02    0.24569E+00    0.31747E-01
    0.89561E+02    0.23067E+00    0.61483E-01
    0.92049E+02    0.22235E+00    0.76431E-01
    0.94537E+02    0.21222E+00    0.22213E+00
    0.97024E+02    0.20119E+00    0.30380E+00
    0.99512E+02    0.17807E+00    0.56614E+00
    0.10200E+03    0.16006E+00    0.10000E+01
zone i=     42,T= "1dxhc;t= 0.4500E+03y,z:   1  22"
    0.00000E+00    0.49852E+00   -0.14414E-13
    0.24878E+01    0.49309E+00   -0.61896E-13
    0.49756E+01    0.48491E+00   -0.24137E-12
    0.74634E+01    0.47876E+00   -0.91425E-12
    0.99512E+01    0.47294E+00   -0.26438E-11
    0.12439E+02    0.46778E+00   -0.84817E-11
    0.14927E+02    0.46351E+00   -0.25829E-10
    0.17415E+02    0.45792E+00   -0.63756E-10
    0.19902E+02    0.44877E+00   -0.20261E-09
    0.22390E+02    0.43778E+00   -0.42154E-09
    0.24878E+02    0.42755E+00   -0.69029E-09
    0.27366E+02    0.41370E+00   -0.11626E-08
    0.29854E+02    0.40315E+00   -0.17043E-08
    0.32341E+02    0.39023E+00   -0.22844E-08
    0.34829E+02    0.38244E+00   -0.23646E-08
    0.37317E+02    0.37358E+00   -0.42102E-08
    0.39805E+02    0.36339E+00   -0.82251E-08
    0.42293E+02    0.35145E+00   -0.14472E-07
    0.44780E+02    0.34002E+00   -0.27972E-07
    0.47268E+02    0.33184E+00   -0.59987E-07
    0.49756E+02    0.32697E+00   -0.11658E-06
    0.52244E+02    0.32027E+00   -0.25535E-06
    0.54732E+02    0.30672E+00   -0.53084E-06
    0.57220E+02    0.29548E+00   -0.79841E-06
    0.59707E+02    0.27693E+00   -0.13186E-05
    0.62195E+02    0.26632E+00   -0.14941E-05
    0.64683E+02    0.24699E+00   -0.24537E-05
    0.67171E+02    0.22703E+00   -0.21603E-05
    0.69659E+02    0.20848E+00   -0.15777E-05
    0.72146E+02    0.19804E+00   -0.19207E-05
    0.74634E+02    0.19353E+00   -0.87075E-06
    0.77122E+02    0.18482E+00   -0.36139E-05
    0.79610E+02    0.17717E+00   -0.14770E-05
    0.82098E+02    0.16182E+00   -0.35481E-05
    0.84585E+02    0.14987E+00   -0.13645E-04
    0.87073E+02    0.13736E+00   -0.16043E-04
    0.89561E+02    0.12305E+00    0.14235E-06
    0.92049E+02    0.11189E+00   -0.43396E-04
    0.94537E+02    0.95321E-01   -0.11824E-03
    0.97024E+02    0.63614E-01   -0.17278E-03
    0.99512E+02    0.32240E-01    0.12309E-03
    0.10200E+03    0.68371E-02    0.49634E-03
zone i=     42,T= "1dxhc;t= 0.6000E+03y,z:   1   1"
    0.00000E+00    0.50000E+00    0.00000E+00
    0.24878E+01    0.49647E+00    0.98019E-13
    0.49756E+01    0.49131E+00    0.28182E-12
    0.74634E+01    0.48773E+00    0.58192E-12
    0.99512E+01    0.48117E+00    0.17336E-11
    0.12439E+02    0.46878E+00    0.46460E-11
    0.14927E+02    0.46009E+00    0.12393E-10
    0.17415E+02    0.45797E+00    0.25120E-10
    0.19902E+02    0.45648E+00    0.51244E-10
    0.22390E+02    0.45315E+00    0.11392E-09
    0.24878E+02    0.44867E+00    0.26948E-09
    0.27366E+02    0.44234E+00    0.72296E-09
    0.29854E+02    0.43920E+00    0.13504E-08
    0.32341E+02    0.43645E+00    0.27766E-08
    0.34829E+02    0.42939E+00    0.16272E-07
    0.37317E+02    0.42493E+00    0.37001E-07
    0.39805E+02    0.41988E+00    0.92558E-07
    0.42293E+02    0.41471E+00    0.37608E-06
    0.44780E+02    0.40883E+00    0.86837E-06
    0.47268E+02    0.40400E+00    0.21264E-05
    0.49756E+02    0.40086E+00    0.33601E-05
    0.52244E+02    0.39601E+00    0.73067E-05
    0.54732E+02    0.39180E+00    0.14300E-04
    0.57220E+02    0.38929E+00    0.30225E-04
    0.59707E+02    0.38652E+00    0.62061E-04
    0.62195E+02    0.37765E+00    0.13878E-03
    0.64683E+02    0.36584E+00    0.43908E-03
    0.67171E+02    0.35254E+00    0.17644E-02
    0.69659E+02    0.34305E+00    0.49373E-02
    0.72146E+02    0.33791E+00    0.12512E-01
    0.74634E+02    0.33407E+00    0.24145E-01
    0.77122E+02    0.33238E+00    0.60058E-01
    0.79610E+02    0.33423E+00    0.28306E+00
    0.82098E+02    0.34557E+00    0.45801E+00
    0.84585E+02    0.36054E+00    0.56924E+00
    0.87073E+02    0.37643E+00    0.66097E+00
    0.89561E+02    0.38602E+00    0.74807E+00
    0.92049E+02    0.39522E+00    0.85040E+00
    0.94537E+02    0.39985E+00    0.91269E+00
    0.97024E+02    0.40293E+00    0.92989E+00
    0.99512E+02    0.40928E+00    0.99611E+00
    0.10200E+03    0.40014E+00    0.10000E+01
zone i=     42,T= "1dxhc;t= 0.6000E+03y,z:   1  12"
    0.00000E+00    0.50000E+00    0.00000E+00
    0.24878E+01    0.49615E+00    0.68057E-15
    0.49756E+01    0.49242E+00    0.14950E-14
    0.74634E+01    0.48708E+00    0.52360E-14
    0.99512E+01    0.48240E+00    0.13089E-13
    0.12439E+02    0.47566E+00    0.31562E-13
    0.14927E+02    0.46582E+00    0.11722E-12
    0.17415E+02    0.45904E+00    0.37184E-12
    0.19902E+02    0.45375E+00    0.62615E-12
    0.22390E+02    0.45035E+00    0.16137E-11
    0.24878E+02    0.44607E+00    0.68291E-12
    0.27366E+02    0.44194E+00    0.58125E-11
    0.29854E+02    0.43820E+00    0.43921E-10
    0.32341E+02    0.43406E+00    0.98084E-10
    0.34829E+02    0.42815E+00    0.37496E-09
    0.37317E+02    0.42332E+00    0.11923E-08
    0.39805E+02    0.42014E+00    0.20593E-08
    0.42293E+02    0.41745E+00    0.36147E-08
    0.44780E+02    0.41391E+00    0.10981E-07
    0.47268E+02    0.40821E+00    0.25226E-07
    0.49756E+02    0.39992E+00    0.62497E-07
    0.52244E+02    0.39366E+00    0.19522E-06
    0.54732E+02    0.38973E+00    0.14380E-06
    0.57220E+02    0.38420E+00    0.10772E-06
    0.59707E+02    0.37961E+00   -0.87894E-07
    0.62195E+02    0.37507E+00   -0.36566E-06
    0.64683E+02    0.37007E+00    0.27060E-06
    0.67171E+02    0.36345E+00   -0.45049E-06
    0.69659E+02    0.34917E+00   -0.53549E-06
    0.72146E+02    0.34093E+00    0.53777E-06
    0.74634E+02    0.32277E+00   -0.23515E-04
    0.77122E+02    0.30723E+00    0.23772E-03
    0.79610E+02    0.29138E+00    0.15146E-02
    0.82098E+02    0.26920E+00    0.42494E-02
    0.84585E+02    0.25643E+00    0.12885E-01
    0.87073E+02    0.24257E+00    0.33833E-01
    0.89561E+02    0.22797E+00    0.64887E-01
    0.92049E+02    0.21997E+00    0.80518E-01
    0.94537E+02    0.21022E+00    0.22608E+00
    0.97024E+02    0.19962E+00    0.30730E+00
    0.99512E+02    0.17738E+00    0.56671E+00
    0.10200E+03    0.16006E+00    0.10000E+01
zone i=     42,T= "1dxhc;t= 0.6000E+03y,z:   1  22"
    0.00000E+00    0.49852E+00   -0.48225E-12
    0.24878E+01    0.49309E+00   -0.96794E-12
    0.49756E+01    0.48491E+00   -0.31194E-11
    0.74634E+01    0.47875E+00   -0.87356E-11
    0.99512E+01    0.47293E+00   -0.20529E-10
    0.12439E+02    0.46776E+00   -0.52997E-10
    0.14927E+02    0.46349E+00   -0.12540E-09
    0.17415E+02    0.45791E+00   -0.25465E-09
    0.19902E+02    0.44875E+00   -0.65406E-09
    0.22390E+02    0.43776E+00   -0.12267E-08
    0.24878E+02    0.42753E+00   -0.19279E-08
    0.27366E+02    0.41368E+00   -0.31766E-08
    0.29854E+02    0.40312E+00   -0.46657E-08
    0.32341E+02    0.39019E+00   -0.65852E-08
    0.34829E+02    0.38241E+00   -0.79567E-08
    0.37317E+02    0.37354E+00   -0.13886E-07
    0.39805E+02    0.36335E+00   -0.24573E-07
    0.42293E+02    0.35141E+00   -0.40934E-07
    0.44780E+02    0.33997E+00   -0.73478E-07
    0.47268E+02    0.33179E+00   -0.14427E-06
    0.49756E+02    0.32692E+00   -0.25539E-06
    0.52244E+02    0.32021E+00   -0.49115E-06
    0.54732E+02    0.30666E+00   -0.90005E-06
    0.57220E+02    0.29542E+00   -0.12904E-05
    0.59707E+02    0.27686E+00   -0.20873E-05
    0.62195E+02    0.26625E+00   -0.24870E-05
    0.64683E+02    0.24692E+00   -0.39416E-05
    0.67171E+02    0.22695E+00   -0.40320E-05
    0.69659E+02    0.20839E+00   -0.38847E-05
    0.72146E+02    0.19794E+00   -0.49626E-05
    0.74634E+02    0.19344E+00   -0.47014E-05
    0.77122E+02    0.18472E+00   -0.87214E-05
    0.79610E+02    0.17707E+00   -0.77658E-05
    0.82098E+02    0.16172E+00   -0.13179E-04
    0.84585E+02    0.14977E+00   -0.23479E-04
    0.87073E+02    0.13726E+00   -0.27309E-04
    0.89561E+02    0.12295E+00   -0.12895E-04
    0.92049E+02    0.11179E+00   -0.55362E-04
    0.94537E+02    0.95229E-01   -0.12898E-03
    0.97024E+02    0.63541E-01   -0.18448E-03
    0.99512E+02    0.32197E-01    0.11582E-03
    0.10200E+03    0.68275E-02    0.48570E-03
zone i=     42,T= "1dxhc;t= 0.7500E+03y,z:   1   1"
    0.00000E+00    0.50000E+00    0.00000E+00
    0.24878E+01    0.49648E+00    0.78226E-12
    0.49756E+01    0.49133E+00    0.21489E-11
    0.74634E+01    0.48776E+00    0.42749E-11
    0.99512E+01    0.48122E+00    0.11961E-10
    0.12439E+02    0.46887E+00    0.29624E-10
    0.14927E+02    0.46020E+00    0.74086E-10
    0.17415E+02    0.45808E+00    0.14503E-09
    0.19902E+02    0.45660E+00    0.28553E-09
    0.22390E+02    0.45328E+00    0.60703E-09
    0.24878E+02    0.44881E+00    0.13665E-08
    0.27366E+02    0.44250E+00    0.34135E-08
    0.29854E+02    0.43938E+00    0.60045E-08
    0.32341E+02    0.43664E+00    0.11509E-07
    0.34829E+02    0.42962E+00    0.58141E-07
    0.37317E+02    0.42518E+00    0.11754E-06
    0.39805E+02    0.42015E+00    0.26994E-06
    0.42293E+02    0.41501E+00    0.97464E-06
    0.44780E+02    0.40917E+00    0.20848E-05
    0.47268E+02    0.40437E+00    0.48913E-05
    0.49756E+02    0.40125E+00    0.78314E-05
    0.52244E+02    0.39644E+00    0.17250E-04
    0.54732E+02    0.39225E+00    0.34732E-04
    0.57220E+02    0.38977E+00    0.73076E-04
    0.59707E+02    0.38702E+00    0.14485E-03
    0.62195E+02    0.37828E+00    0.30684E-03
    0.64683E+02    0.36672E+00    0.86433E-03
    0.67171E+02    0.35382E+00    0.29480E-02
    0.69659E+02    0.34475E+00    0.72422E-02
    0.72146E+02    0.33992E+00    0.17691E-01
    0.74634E+02    0.33693E+00    0.39034E-01
    0.77122E+02    0.33636E+00    0.17843E+00
    0.79610E+02    0.34152E+00    0.52265E+00
    0.82098E+02    0.35348E+00    0.61281E+00
    0.84585E+02    0.36723E+00    0.66423E+00
    0.87073E+02    0.38125E+00    0.72996E+00
    0.89561E+02    0.38946E+00    0.79712E+00
    0.92049E+02    0.39725E+00    0.87898E+00
    0.94537E+02    0.40123E+00    0.92872E+00
    0.97024E+02    0.40380E+00    0.94272E+00
    0.99512E+02    0.40955E+00    0.99771E+00
    0.10200E+03    0.40014E+00    0.10000E+01
zone i=     42,T= "1dxhc;t= 0.7500E+03y,z:   1  12"
    0.00000E+00    0.50000E+00    0.00000E+00
    0.24878E+01    0.49616E+00    0.57988E-14
    0.49756E+01    0.49244E+00    0.12471E-13
    0.74634E+01    0.48712E+00    0.40450E-13
    0.99512E+01    0.48245E+00    0.91277E-13
    0.12439E+02    0.47572E+00    0.19905E-12
    0.14927E+02    0.46591E+00    0.65800E-12
    0.17415E+02    0.45915E+00    0.18375E-11
    0.19902E+02    0.45387E+00    0.28572E-11
    0.22390E+02    0.45049E+00    0.68494E-11
    0.24878E+02    0.44622E+00    0.35047E-11
    0.27366E+02    0.44211E+00    0.22517E-10
    0.29854E+02    0.43838E+00    0.14566E-09
    0.32341E+02    0.43427E+00    0.29973E-09
    0.34829E+02    0.42838E+00    0.10143E-08
    0.37317E+02    0.42358E+00    0.28401E-08
    0.39805E+02    0.42041E+00    0.46360E-08
    0.42293E+02    0.41774E+00    0.77015E-08
    0.44780E+02    0.41422E+00    0.20573E-07
    0.47268E+02    0.40855E+00    0.43234E-07
    0.49756E+02    0.40031E+00    0.96966E-07
    0.52244E+02    0.39410E+00    0.27566E-06
    0.54732E+02    0.39020E+00    0.20543E-06
    0.57220E+02    0.38472E+00    0.20980E-06
    0.59707E+02    0.38017E+00    0.72046E-07
    0.62195E+02    0.37568E+00   -0.51640E-06
    0.64683E+02    0.37073E+00    0.24563E-06
    0.67171E+02    0.36415E+00   -0.49153E-06
    0.69659E+02    0.34988E+00    0.31548E-06
    0.72146E+02    0.34153E+00    0.70412E-05
    0.74634E+02    0.32287E+00   -0.13590E-04
    0.77122E+02    0.30667E+00    0.39508E-03
    0.79610E+02    0.29011E+00    0.17590E-02
    0.82098E+02    0.26715E+00    0.45871E-02
    0.84585E+02    0.25425E+00    0.13703E-01
    0.87073E+02    0.24052E+00    0.35621E-01
    0.89561E+02    0.22623E+00    0.67481E-01
    0.92049E+02    0.21844E+00    0.83602E-01
    0.94537E+02    0.20893E+00    0.22900E+00
    0.97024E+02    0.19861E+00    0.30982E+00
    0.99512E+02    0.17694E+00    0.56733E+00
    0.10200E+03    0.16006E+00    0.10000E+01
zone i=     42,T= "1dxhc;t= 0.7500E+03y,z:   1  22"
    0.00000E+00    0.49852E+00   -0.25137E-11
    0.24878E+01    0.49309E+00   -0.40278E-11
    0.49756E+01    0.48491E+00   -0.12095E-10
    0.74634E+01    0.47875E+00   -0.29659E-10
    0.99512E+01    0.47293E+00   -0.63297E-10
    0.12439E+02    0.46776E+00   -0.14596E-09
    0.14927E+02    0.46349E+00   -0.29858E-09
    0.17415E+02    0.45790E+00   -0.53959E-09
    0.19902E+02    0.44874E+00   -0.12099E-08
    0.22390E+02    0.43775E+00   -0.21294E-08
    0.24878E+02    0.42751E+00   -0.32799E-08
    0.27366E+02    0.41366E+00   -0.53691E-08
    0.29854E+02    0.40310E+00   -0.79516E-08
    0.32341E+02    0.39017E+00   -0.11674E-07
    0.34829E+02    0.38238E+00   -0.15595E-07
    0.37317E+02    0.37351E+00   -0.27662E-07
    0.39805E+02    0.36332E+00   -0.46569E-07
    0.42293E+02    0.35138E+00   -0.75311E-07
    0.44780E+02    0.33994E+00   -0.12990E-06
    0.47268E+02    0.33176E+00   -0.24209E-06
    0.49756E+02    0.32689E+00   -0.40520E-06
    0.52244E+02    0.32018E+00   -0.71645E-06
    0.54732E+02    0.30662E+00   -0.12076E-05
    0.57220E+02    0.29537E+00   -0.16772E-05
    0.59707E+02    0.27681E+00   -0.26680E-05
    0.62195E+02    0.26620E+00   -0.32662E-05
    0.64683E+02    0.24686E+00   -0.50557E-05
    0.67171E+02    0.22689E+00   -0.55592E-05
    0.69659E+02    0.20833E+00   -0.60237E-05
    0.72146E+02    0.19788E+00   -0.77679E-05
    0.74634E+02    0.19337E+00   -0.83632E-05
    0.77122E+02    0.18465E+00   -0.12828E-04
    0.79610E+02    0.17700E+00   -0.12480E-04
    0.82098E+02    0.16164E+00   -0.18370E-04
    0.84585E+02    0.14969E+00   -0.27846E-04
    0.87073E+02    0.13719E+00   -0.32195E-04
    0.89561E+02    0.12287E+00   -0.17976E-04
    0.92049E+02    0.11172E+00   -0.59551E-04
    0.94537E+02    0.95164E-01   -0.13316E-03
    0.97024E+02    0.63491E-01   -0.18914E-03
    0.99512E+02    0.32168E-01    0.11272E-03
    0.10200E+03    0.68209E-02    0.47892E-03
zone i=     42,T= "1dxhc;t= 0.9000E+03y,z:   1   1"
    0.00000E+00    0.50000E+00    0.00000E+00
    0.24878E+01    0.49649E+00    0.36405E-11
    0.49756E+01    0.49135E+00    0.96600E-11