          Title="3D head and conc at t=   0.2500E+04 days"
          variables="x","y","z","head","conc"
          zone i=      22, j=      42, k=      42, T="3D"
  0.00000000E+00  0.00000000E+00  0.00000000E+00  0.50000000E+00  0.00000000E+00
  0.00000000E+00  0.00000000E+00  0.97612082E+00  0.50000000E+00  0.00000000E+00
  0.00000000E+00  0.00000000E+00  0.19522416E+01  0.50000000E+00  0.00000000E+00
  0.00000000E+00  0.00000000E+00  0.29283625E+01  0.50000000E+00  0.00000000E+00
  0.00000000E+00  0.00000000E+00  0.39044833E+01  0.50000000E+00  0.00000000E+00
  0.00000000E+00  0.00000000E+00  0.48806041E+01  0.50000000E+00  0.00000000E+00
  0.00000000E+00  0.00000000E+00  0.58567249E+01  0.50000000E+00  0.00000000E+00
  0.00000000E+00  0.00000000E+00  0.68328457E+01  0.50000000E+00  0.00000000E+00
  0.00000000E+00  0.00000000E+00  0.78089666E+01  0.50000000E+00  0.00000000E+00
  0.00000000E+00  0.00000000E+00  0.87850874E+01  0.50000000E+00  0.00000000E+00
  0.00000000E+00  0.00000000E+00  0.97612082E+01  0.50000000E+00  0.00000000E+00
  0.00000000E+00  0.00000000E+00  0.10737329E+02  0.50000000E+00  0.00000000E+00
  0.00000000E+00  0.00000000E+00  0.11713450E+02  0.50000000E+00  0.00000000E+00
  0.00000000E+00  0.00000000E+00  0.12689571E+02  0.50000000E+00  0.00000000E+00
  0.00000000E+00  0.00000000E+00  0.13665691E+02  0.50000000E+00  0.00000000E+00
  0.00000000E+00  0.00000000E+00  0.14641812E+02  0.50000000E+00  0.00000000E+00
  0.00000000E+00  0.00000000E+00  0.15617933E+02  0.50000000E+00  0.00000000E+00
  0.00000000E+00  0.00000000E+00  0.16594054E+02  0.50000000E+00  0.00000000E+00
  0.00000000E+00  0.00000000E+00  0.17570175E+02  0.50000000E+00  0.00000000E+00
  0.00000000E+00  0.00000000E+00  0.18546296E+02  0.50000000E+00  0.00000000E+00
  0.00000000E+00  0.00000000E+00  0.19522416E+02  0.50000000E+00  0.00000000E+00
  0.00000000E+00  0.00000000E+00  0.20498537E+02  0.49852036E+00 -0.49591898E-10
  0.00000000E+00  0.24878049E+01  0.00000000E+00  0.50000000E+00  0.00000000E+00
  0.00000000E+00  0.24878049E+01  0.97612034E+00  0.50000000E+00  0.00000000E+00
  0.00000000E+00  0.24878049E+01  0.19522407E+01  0.50000000E+00  0.00000000E+00
  0.00000000E+00  0.24878049E+01  0.29283610E+01  0.50000000E+00  0.00000000E+00
  0.00000000E+00  0.24878049E+01  0.39044814E+01  0.50000000E+00  0.00000000E+00
  0.00000000E+00  0.24878049E+01  0.48806017E+01  0.50000000E+00  0.00000000E+00
  0.00000000E+00  0.24878049E+01  0.58567220E+01  0.50000000E+00  0.00000000E+00
  0.00000000E+00  0.24878049E+01  0.68328424E+01  0.50000000E+00  0.00000000E+00
  0.00000000E+00  0.24878049E+01  0.78089627E+01  0.50000000E+00  0.00000000E+00
  0.00000000E+00  0.24878049E+01  0.87850830E+01  0.50000000E+00  0.00000000E+00
  0.00000000E+00  0.24878049E+01  0.97612034E+01  0.50000000E+00  0.00000000E+00
  0.00000000E+00  0.24878049E+01  0.10737324E+02  0.50000000E+00  0.00000000E+00
  0.00000000E+00  0.24878049E+01  0.11713444E+02  0.50000000E+00  0.00000000E+00
  0.00000000E+00  0.24878049E+01  0.12689564E+02  0.50000000E+00  0.00000000E+00
  0.00000000E+00  0.24878049E+01  0.13665685E+02  0.50000000E+00  0.00000000E+00
  0.00000000E+00  0.24878049E+01  0.14641805E+02  0.50000000E+00  0.00000000E+00
  0.00000000E+00  0.24878049E+01  0.15617925E+02  0.50000000E+00  0.00000000E+00
  0.00000000E+00  0.24878049E+01  0.16594046E+02  0.50000000E+00  0.00000000E+00
  0.00000000E+00  0.24878049E+01  0.17570166E+02  0.50000000E+00  0.00000000E+00
  0.00000000E+00  0.24878049E+01  0.18546286E+02  0.50000000E+00  0.00000000E+00
  0.00000000E+00  0.24878049E+01  0.19522407E+02  0.50000000E+00  0.00000000E+00
  0.00000000E+00  0.24878049E+01  0.20498527E+02  0.49851049E+00 -0.47222215E-10
  0.00000000E+00  0.49756098E+01  0.00000000E+00  0.50000000E+00  0.00000000E+00
  0.00000000E+00  0.49756098E+01  0.97612025E+00  0.50000000E+00  0.00000000E+00
  0.00000000E+00  0.49756098E+01  0.19522405E+01  0.50000000E+00  0.00000000E+00
  0.00000000E+00  0.49756098E+01  0.29283607E+01  0.50000000E+00  0.00000000E+00
  0.00000000E+00  0.49756098E+01  0.39044810E+01  0.50000000E+00  0.00000000E+00
  0.00000000E+00  0.49756098E+01  0.48806012E+01  0.50000000E+00  0.00000000E+00
  0.00000000E+00  0.49756098E+01  0.58567215E+01  0.50000000E+00  0.00000000E+00
  0.00000000E+00  0.49756098E+01  0.68328417E+01  0.50000000E+00  0.00000000E+00
  0.00000000E+00  0.49756098E+01  0.78089620E+01  0.50000000E+00  0.00000000E+00
  0.00000000E+00  0.49756098E+01  0.87850822E+01  0.50000000E+00  0.00000000E+00
  0.00000000E+00  0.49756098E+01  0.97612025E+01  0.50000000E+00  0.00000000E+00
  0.00000000E+00  0.49756098E+01  0.10737323E+02  0.50000000E+00  0.00000000E+00
  0.00000000E+00  0.49756098E+01  0.11713443E+02  0.50000000E+00  0.00000000E+00
  0.00000000E+00  0.49756098E+01  0.12689563E+02  0.50000000E+00  0.00000000E+00
  0.00000000E+00  0.49756098E+01  0.13665683E+02  0.50000000E+00  0.00000000E+00
  0.00000000E+00  0.49756098E+01  0.14641804E+02  0.50000000E+00  0.00000000E+00
  0.00000000E+00  0.49756098E+01  0.15617924E+02  0.50000000E+00  0.00000000E+00
  0.00000000E+00  0.49756098E+01  0.16594044E+02  0.50000000E+00  0.00000000E+00
  0.00000000E+00  0.49756098E+01  0.17570164E+02  0.50000000E+00  0.00000000E+00
  0.00000000E+00  0.49756098E+01  0.18546285E+02  0.50000000E+00  0.00000000E+00
  0.00000000E+00  0.49756098E+01  0.19522405E+02  0.50000000E+00  0.00000000E+00
  0.00000000E+00  0.49756098E+01  0.20498525E+02  0.49850878E+00 -0.42549134E-10
  0.00000000E+00  0.74634146E+01  0.00000000E+00  0.50000000E+00  0.00000000E+00
  0.00000000E+00  0.74634146E+01  0.97611597E+00  0.50000000E+00  0.00000000E+00
  0.00000000E+00  0.74634146E+01  0.19522319E+01  0.50000000E+00  0.00000000E+00
  0.00000000E+00  0.74634146E+01  0.29283479E+01  0.50000000E+00  0.00000000E+00
  0.00000000E+00  0.74634146E+01  0.39044639E+01  0.50000000E+00  0.00000000E+00
  0.00000000E+00  0.74634146E+01  0.48805799E+01  0.50000000E+00  0.00000000E+00
  0.00000000E+00  0.74634146E+01  0.58566958E+01  0.50000000E+00  0.00000000E+00
  0.00000000E+00  0.74634146E+01  0.68328118E+01  0.50000000E+00  0.00000000E+00
  0.00000000E+00  0.74634146E+01  0.78089278E+01  0.50000000E+00  0.00000000E+00
  0.00000000E+00  0.74634146E+01  0.87850437E+01  0.50000000E+00  0.00000000E+00
  0.00000000E+00  0.74634146E+01  0.97611597E+01  0.50000000E+00  0.00000000E+00
  0.00000000E+00  0.74634146E+01  0.10737276E+02  0.50000000E+00  0.00000000E+00
  0.00000000E+00  0.74634146E+01  0.11713392E+02  0.50000000E+00  0.00000000E+00
  0.00000000E+00  0.74634146E+01  0.12689508E+02  0.50000000E+00  0.00000000E+00
  0.00000000E+00  0.74634146E+01  0.13665624E+02  0.50000000E+00  0.00000000E+00
  0.00000000E+00  0.74634146E+01  0.14641740E+02  0.50000000E+00  0.00000000E+00
  0.00000000E+00  0.74634146E+01  0.15617856E+02  0.50000000E+00  0.00000000E+00
  0.00000000E+00  0.74634146E+01  0.16593972E+02  0.50000000E+00  0.00000000E+00
  0.00000000E+00  0.74634146E+01  0.17570087E+02  0.50000000E+00  0.00000000E+00
  0.00000000E+00  0.74634146E+01  0.18546203E+02  0.50000000E+00  0.00000000E+00
  0.00000000E+00  0.74634146E+01  0.19522319E+02  0.50000000E+00  0.00000000E+00
  0.00000000E+00  0.74634146E+01  0.20498435E+02  0.49841808E+00 -0.36912556E-10
  0.00000000E+00  0.99512195E+01  0.00000000E+00  0.50000000E+00  0.00000000E+00
  0.00000000E+00  0.99512195E+01  0.97611463E+00  0.50000000E+00  0.00000000E+00
  0.00000000E+00  0.99512195E+01  0.19522293E+01  0.50000000E+00  0.00000000E+00
  0.00000000E+00  0.99512195E+01  0.29283439E+01  0.50000000E+00  0.00000000E+00
  0.00000000E+00  0.99512195E+01  0.39044585E+01  0.50000000E+00  0.00000000E+00
  0.00000000E+00  0.99512195E+01  0.48805731E+01  0.50000000E+00  0.00000000E+00
  0.00000000E+00  0.99512195E+01  0.58566878E+01  0.50000000E+00  0.00000000E+00
  0.00000000E+00  0.99512195E+01  0.68328024E+01  0.50000000E+00  0.00000000E+00
  0.00000000E+00  0.99512195E+01  0.78089170E+01  0.50000000E+00  0.00000000E+00
  0.00000000E+00  0.99512195E+01  0.87850317E+01  0.50000000E+00  0.00000000E+00
  0.00000000E+00  0.99512195E+01  0.97611463E+01  0.50000000E+00  0.00000000E+00
  0.00000000E+00  0.99512195E+01  0.10737261E+02  0.50000000E+00  0.00000000E+00
  0.00000000E+00  0.99512195E+01  0.11713376E+02  0.50000000E+00  0.00000000E+00
  0.00000000E+00  0.99512195E+01  0.12689490E+02  0.50000000E+00  0.00000000E+00
  0.00000000E+00  0.99512195E+01  0.13665605E+02  0.50000000E+00  0.00000000E+00
  0.00000000E+00  0.99512195E+01  0.14641719E+02  0.50000000E+00  0.00000000E+00
  0.00000000E+00  0.99512195E+01  0.15617834E+02  0.50000000E+00  0.00000000E+00
  0.00000000E+00  0.99512195E+01  0.16593949E+02  0.50000000E+00  0.00000000E+00
  0.00000000E+00  0.99512195E+01  0.17570063E+02  0.50000000E+00  0.00000000E+00
  0.00000000E+00  0.99512195E+01  0.18546178E+02  0.50000000E+00  0.00000000E+00
  0.00000000E+00  0.99512195E+01  0.19522293E+02  0.50000000E+00  0.00000000E+00
  0.00000000E+00  0.99512195E+01  0.20498407E+02  0.49838941E+00 -0.28504807E-10
  0.00000000E+00  0.12439024E+02  0.00000000E+00  0.50000000E+00  0.00000000E+00
  0.00000000E+00  0.12439024E+02  0.97611569E+00  0.50000000E+00  0.00000000E+00
  0.00000000E+00  0.12439024E+02  0.19522314E+01  0.50000000E+00  0.00000000E+00
  0.00000000E+00  0.12439024E+02  0.29283471E+01  0.50000000E+00  0.00000000E+00
  0.00000000E+00  0.12439024E+02  0.39044628E+01  0.50000000E+00  0.00000000E+00
  0.00000000E+00  0.12439024E+02  0.48805785E+01  0.50000000E+00  0.00000000E+00
  0.00000000E+00  0.12439024E+02  0.58566942E+01  0.50000000E+00  0.00000000E+00
  0.00000000E+00  0.12439024E+02  0.68328099E+01  0.50000000E+00  0.00000000E+00
  0.00000000E+00  0.12439024E+02  0.78089255E+01  0.50000000E+00  0.00000000E+00
  0.00000000E+00  0.12439024E+02  0.87850412E+01  0.50000000E+00  0.00000000E+00
  0.00000000E+00  0.12439024E+02  0.97611569E+01  0.50000000E+00  0.00000000E+00
  0.00000000E+00  0.12439024E+02  0.10737273E+02  0.50000000E+00  0.00000000E+00
  0.00000000E+00  0.12439024E+02  0.11713388E+02  0.50000000E+00  0.00000000E+00
  0.00000000E+00  0.12439024E+02  0.12689504E+02  0.50000000E+00  0.00000000E+00
  0.00000000E+00  0.12439024E+02  0.13665620E+02  0.50000000E+00  0.00000000E+00
  0.00000000E+00  0.12439024E+02  0.14641735E+02  0.50000000E+00  0.00000000E+00
  0.00000000E+00  0.12439024E+02  0.15617851E+02  0.50000000E+00  0.00000000E+00
  0.00000000E+00  0.12439024E+02  0.16593967E+02  0.50000000E+00  0.00000000E+00
  0.00000000E+00  0.12439024E+02  0.17570082E+02  0.50000000E+00  0.00000000E+00
  0.00000000E+00  0.12439024E+02  0.18546198E+02  0.50000000E+00  0.00000000E+00
  0.00000000E+00  0.12439024E+02  0.19522314E+02  0.50000000E+00  0.00000000E+00
  0.00000000E+00  0.12439024E+02  0.20498430E+02  0.49841101E+00 -0.17657973E-10
  0.00000000E+00  0.14926829E+02  0.00000000E+00  0.50000000E+00  0.00000000E+00
  0.00000000E+00  0.14926829E+02  0.97612280E+00  0.50000000E+00  0.00000000E+00
  0.00000000E+00  0.14926829E+02  0.19522456E+01  0.50000000E+00  0.00000000E+00
  0.00000000E+00  0.14926829E+02  0.29283684E+01  0.50000000E+00  0.00000000E+00
  0.00000000E+00  0.14926829E+02  0.39044912E+01  0.50000000E+00  0.00000000E+00
  0.00000000E+00  0.14926829E+02  0.48806140E+01  0.50000000E+00  0.00000000E+00
  0.00000000E+00  0.14926829E+02  0.58567368E+01  0.50000000E+00  0.00000000E+00
  0.00000000E+00  0.14926829E+02  0.68328596E+01  0.50000000E+00  0.00000000E+00
  0.00000000E+00  0.14926829E+02  0.78089824E+01  0.50000000E+00  0.00000000E+00
  0.00000000E+00  0.14926829E+02  0.87851052E+01  0.50000000E+00  0.00000000E+00
  0.00000000E+00  0.14926829E+02  0.97612280E+01  0.50000000E+00  0.00000000E+00
  0.00000000E+00  0.14926829E+02  0.10737351E+02  0.50000000E+00  0.00000000E+00
  0.00000000E+00  0.14926829E+02  0.11713474E+02  0.50000000E+00  0.00000000E+00
  0.00000000E+00  0.14926829E+02  0.12689596E+02  0.50000000E+00  0.00000000E+00
  0.00000000E+00  0.14926829E+02  0.13665719E+02  0.50000000E+00  0.00000000E+00
  0.00000000E+00  0.14926829E+02  0.14641842E+02  0.50000000E+00  0.00000000E+00
  0.00000000E+00  0.14926829E+02  0.15617965E+02  0.50000000E+00  0.00000000E+00
  0.00000000E+00  0.14926829E+02  0.16594088E+02  0.50000000E+00  0.00000000E+00
  0.00000000E+00  0.14926829E+02  0.17570210E+02  0.50000000E+00  0.00000000E+00
  0.00000000E+00  0.14926829E+02  0.18546333E+02  0.50000000E+00  0.00000000E+00
  0.00000000E+00  0.14926829E+02  0.19522456E+02  0.50000000E+00  0.00000000E+00
  0.00000000E+00  0.14926829E+02  0.20498579E+02  0.49855994E+00 -0.74428198E-11
  0.00000000E+00  0.17414634E+02  0.00000000E+00  0.50000000E+00  0.00000000E+00
  0.00000000E+00  0.17414634E+02  0.97613537E+00  0.50000000E+00  0.00000000E+00
  0.00000000E+00  0.17414634E+02  0.19522707E+01  0.50000000E+00  0.00000000E+00
  0.00000000E+00  0.17414634E+02  0.29284061E+01  0.50000000E+00  0.00000000E+00
  0.00000000E+00  0.17414634E+02  0.39045415E+01  0.50000000E+00  0.00000000E+00
  0.00000000E+00  0.17414634E+02  0.48806769E+01  0.50000000E+00  0.00000000E+00
  0.00000000E+00  0.17414634E+02  0.58568122E+01  0.50000000E+00  0.00000000E+00
  0.00000000E+00  0.17414634E+02  0.68329476E+01  0.50000000E+00  0.00000000E+00
  0.00000000E+00  0.17414634E+02  0.78090830E+01  0.50000000E+00  0.00000000E+00
  0.00000000E+00  0.17414634E+02  0.87852183E+01  0.50000000E+00  0.00000000E+00
  0.00000000E+00  0.17414634E+02  0.97613537E+01  0.50000000E+00  0.00000000E+00
  0.00000000E+00  0.17414634E+02  0.10737489E+02  0.50000000E+00  0.00000000E+00
  0.00000000E+00  0.17414634E+02  0.11713624E+02  0.50000000E+00  0.00000000E+00
  0.00000000E+00  0.17414634E+02  0.12689760E+02  0.50000000E+00  0.00000000E+00
  0.00000000E+00  0.17414634E+02  0.13665895E+02  0.50000000E+00  0.00000000E+00
  0.00000000E+00  0.17414634E+02  0.14642031E+02  0.50000000E+00  0.00000000E+00
  0.00000000E+00  0.17414634E+02  0.15618166E+02  0.50000000E+00  0.00000000E+00
  0.00000000E+00  0.17414634E+02  0.16594301E+02  0.50000000E+00  0.00000000E+00
  0.00000000E+00  0.17414634E+02  0.17570437E+02  0.50000000E+00  0.00000000E+00
  0.00000000E+00  0.17414634E+02  0.18546572E+02  0.50000000E+00  0.00000000E+00
  0.00000000E+00  0.17414634E+02  0.19522707E+02  0.50000000E+00  0.00000000E+00
  0.00000000E+00  0.17414634E+02  0.20498843E+02  0.49882543E+00  0.12196726E-10
  0.00000000E+00  0.19902439E+02  0.00000000E+00  0.50000000E+00  0.00000000E+00
  0.00000000E+00  0.19902439E+02  0.97613308E+00  0.50000000E+00  0.00000000E+00
  0.00000000E+00  0.19902439E+02  0.19522662E+01  0.50000000E+00  0.00000000E+00
  0.00000000E+00  0.19902439E+02  0.29283992E+01  0.50000000E+00  0.00000000E+00
  0.00000000E+00  0.19902439E+02  0.39045323E+01  0.50000000E+00  0.00000000E+00
  0.00000000E+00  0.19902439E+02  0.48806654E+01  0.50000000E+00  0.00000000E+00
  0.00000000E+00  0.19902439E+02  0.58567985E+01  0.50000000E+00  0.00000000E+00
  0.00000000E+00  0.19902439E+02  0.68329316E+01  0.50000000E+00  0.00000000E+00
  0.00000000E+00  0.19902439E+02  0.78090646E+01  0.50000000E+00  0.00000000E+00
  0.00000000E+00  0.19902439E+02  0.87851977E+01  0.50000000E+00  0.00000000E+00
  0.00000000E+00  0.19902439E+02  0.97613308E+01  0.50000000E+00  0.00000000E+00
  0.00000000E+00  0.19902439E+02  0.10737464E+02  0.50000000E+00  0.00000000E+00
  0.00000000E+00  0.19902439E+02  0.11713597E+02  0.50000000E+00  0.00000000E+00
  0.00000000E+00  0.19902439E+02  0.12689730E+02  0.50000000E+00  0.00000000E+00
  0.00000000E+00  0.19902439E+02  0.13665863E+02  0.50000000E+00  0.00000000E+00
  0.00000000E+00  0.19902439E+02  0.14641996E+02  0.50000000E+00  0.00000000E+00
  0.00000000E+00  0.19902439E+02  0.15618129E+02  0.50000000E+00  0.00000000E+00
  0.00000000E+00  0.19902439E+02  0.16594262E+02  0.50000000E+00  0.00000000E+00
  0.00000000E+00  0.19902439E+02  0.17570395E+02  0.50000000E+00  0.00000000E+00
  0.00000000E+00  0.19902439E+02  0.18546529E+02  0.50000000E+00  0.00000000E+00
  0.00000000E+00  0.19902439E+02  0.19522662E+02  0.50000000E+00  0.00000000E+00
  0.00000000E+00  0.19902439E+02  0.20498795E+02  0.49877861E+00  0.48346732E-10
  0.00000000E+00  0.22390244E+02  0.00000000E+00  0.50000000E+00  0.00000000E+00
  0.00000000E+00  0.22390244E+02  0.97614406E+00  0.50000000E+00  0.00000000E+00
  0.00000000E+00  0.22390244E+02  0.19522881E+01  0.50000000E+00  0.00000000E+00
  0.00000000E+00  0.22390244E+02  0.29284322E+01  0.50000000E+00  0.00000000E+00
  0.00000000E+00  0.22390244E+02  0.39045762E+01  0.50000000E+00  0.00000000E+00
  0.00000000E+00  0.22390244E+02  0.48807203E+01  0.50000000E+00  0.00000000E+00
  0.00000000E+00  0.22390244E+02  0.58568644E+01  0.50000000E+00  0.00000000E+00
  0.00000000E+00  0.22390244E+02  0.68330084E+01  0.50000000E+00  0.00000000E+00
  0.00000000E+00  0.22390244E+02  0.78091525E+01  0.50000000E+00  0.00000000E+00
  0.00000000E+00  0.22390244E+02  0.87852965E+01  0.50000000E+00  0.00000000E+00
  0.00000000E+00  0.22390244E+02  0.97614406E+01  0.50000000E+00  0.00000000E+00
  0.00000000E+00  0.22390244E+02  0.10737585E+02  0.50000000E+00  0.00000000E+00
  0.00000000E+00  0.22390244E+02  0.11713729E+02  0.50000000E+00  0.00000000E+00
  0.00000000E+00  0.22390244E+02  0.12689873E+02  0.50000000E+00  0.00000000E+00
  0.00000000E+00  0.22390244E+02  0.13666017E+02  0.50000000E+00  0.00000000E+00
  0.00000000E+00  0.22390244E+02  0.14642161E+02  0.50000000E+00  0.00000000E+00
  0.00000000E+00  0.22390244E+02  0.15618305E+02  0.50000000E+00  0.00000000E+00
  0.00000000E+00  0.22390244E+02  0.16594449E+02  0.50000000E+00  0.00000000E+00
  0.00000000E+00  0.22390244E+02  0.17570593E+02  0.50000000E+00  0.00000000E+00
  0.00000000E+00  0.22390244E+02  0.18546737E+02  0.50000000E+00  0.00000000E+00
  0.00000000E+00  0.22390244E+02  0.19522881E+02  0.50000000E+00  0.00000000E+00
  0.00000000E+00  0.22390244E+02  0.20499025E+02  0.49901195E+00  0.76345982E-10
  0.00000000E+00  0.24878049E+02  0.00000000E+00  0.50000000E+00  0.00000000E+00
  0.00000000E+00  0.24878049E+02  0.97613522E+00  0.50000000E+00  0.00000000E+00
  0.00000000E+00  0.24878049E+02  0.19522704E+01  0.50000000E+00  0.00000000E+00
  0.00000000E+00  0.24878049E+02  0.29284057E+01  0.50000000E+00  0.00000000E+00
  0.00000000E+00  0.24878049E+02  0.39045409E+01  0.50000000E+00  0.00000000E+00
  0.00000000E+00  0.24878049E+02  0.48806761E+01  0.50000000E+00  0.00000000E+00
  0.00000000E+00  0.24878049E+02  0.58568113E+01  0.50000000E+00  0.00000000E+00
  0.00000000E+00  0.24878049E+02  0.68329466E+01  0.50000000E+00  0.00000000E+00
  0.00000000E+00  0.24878049E+02  0.78090818E+01  0.50000000E+00  0.00000000E+00
  0.00000000E+00  0.24878049E+02  0.87852170E+01  0.50000000E+00  0.00000000E+00
  0.00000000E+00  0.24878049E+02  0.97613522E+01  0.50000000E+00  0.00000000E+00
  0.00000000E+00  0.24878049E+02  0.10737487E+02  0.50000000E+00  0.00000000E+00
  0.00000000E+00  0.24878049E+02  0.11713623E+02  0.50000000E+00  0.00000000E+00
  0.00000000E+00  0.24878049E+02  0.12689758E+02  0.50000000E+00  0.00000000E+00
  0.00000000E+00  0.24878049E+02  0.13665893E+02  0.50000000E+00  0.00000000E+00
  0.00000000E+00  0.24878049E+02  0.14642028E+02  0.50000000E+00  0.00000000E+00
  0.00000000E+00  0.24878049E+02  0.15618164E+02  0.50000000E+00  0.00000000E+00
  0.00000000E+00  0.24878049E+02  0.16594299E+02  0.50000000E+00  0.00000000E+00
  0.00000000E+00  0.24878049E+02  0.17570434E+02  0.50000000E+00  0.00000000E+00
  0.00000000E+00  0.24878049E+02  0.18546569E+02  0.50000000E+00  0.00000000E+00
  0.00000000E+00  0.24878049E+02  0.19522704E+02  0.50000000E+00  0.00000000E+00
  0.00000000E+00  0.24878049E+02  0.20498840E+02  0.49882492E+00  0.14124200E-09
  0.00000000E+00  0.27365854E+02  0.00000000E+00  0.50000000E+00  0.00000000E+00
  0.00000000E+00  0.27365854E+02  0.97612123E+00  0.50000000E+00  0.00000000E+00
  0.00000000E+00  0.27365854E+02  0.19522425E+01  0.50000000E+00  0.00000000E+00
  0.00000000E+00  0.27365854E+02  0.29283637E+01  0.50000000E+00  0.00000000E+00
  0.00000000E+00  0.27365854E+02  0.39044849E+01  0.50000000E+00  0.00000000E+00
  0.00000000E+00  0.27365854E+02  0.48806062E+01  0.50000000E+00  0.00000000E+00
  0.00000000E+00  0.27365854E+02  0.58567274E+01  0.50000000E+00  0.00000000E+00
  0.00000000E+00  0.27365854E+02  0.68328486E+01  0.50000000E+00  0.00000000E+00
  0.00000000E+00  0.27365854E+02  0.78089699E+01  0.50000000E+00  0.00000000E+00
  0.00000000E+00  0.27365854E+02  0.87850911E+01  0.50000000E+00  0.00000000E+00
  0.00000000E+00  0.27365854E+02  0.97612123E+01  0.50000000E+00  0.00000000E+00
  0.00000000E+00  0.27365854E+02  0.10737334E+02  0.50000000E+00  0.00000000E+00
  0.00000000E+00  0.27365854E+02  0.11713455E+02  0.50000000E+00  0.00000000E+00
  0.00000000E+00  0.27365854E+02  0.12689576E+02  0.50000000E+00  0.00000000E+00
  0.00000000E+00  0.27365854E+02  0.13665697E+02  0.50000000E+00  0.00000000E+00
  0.00000000E+00  0.27365854E+02  0.14641819E+02  0.50000000E+00  0.00000000E+00
  0.00000000E+00  0.27365854E+02  0.15617940E+02  0.50000000E+00  0.00000000E+00
  0.00000000E+00  0.27365854E+02  0.16594061E+02  0.50000000E+00  0.00000000E+00
  0.00000000E+00  0.27365854E+02  0.17570182E+02  0.50000000E+00  0.00000000E+00
  0.00000000E+00  0.27365854E+02  0.18546303E+02  0.50000000E+00  0.00000000E+00
  0.00000000E+00  0.27365854E+02  0.19522425E+02  0.50000000E+00  0.00000000E+00
  0.00000000E+00  0.27365854E+02  0.20498546E+02  0.49852811E+00  0.14558612E-09
  0.00000000E+00  0.29853659E+02  0.00000000E+00  0.50000000E+00  0.00000000E+00
  0.00000000E+00  0.29853659E+02  0.97609375E+00  0.50000000E+00  0.00000000E+00
  0.00000000E+00  0.29853659E+02  0.19521875E+01  0.50000000E+00  0.00000000E+00
  0.00000000E+00  0.29853659E+02  0.29282812E+01  0.50000000E+00  0.00000000E+00
  0.00000000E+00  0.29853659E+02  0.39043750E+01  0.50000000E+00  0.00000000E+00
  0.00000000E+00  0.29853659E+02  0.48804687E+01  0.50000000E+00  0.00000000E+00
  0.00000000E+00  0.29853659E+02  0.58565625E+01  0.50000000E+00  0.00000000E+00
  0.00000000E+00  0.29853659E+02  0.68326562E+01  0.50000000E+00  0.00000000E+00
  0.00000000E+00  0.29853659E+02  0.78087500E+01  0.50000000E+00  0.00000000E+00
  0.00000000E+00  0.29853659E+02  0.87848437E+01  0.50000000E+00  0.00000000E+00
  0.00000000E+00  0.29853659E+02  0.97609375E+01  0.50000000E+00  0.00000000E+00
  0.00000000E+00  0.29853659E+02  0.10737031E+02  0.50000000E+00  0.00000000E+00
  0.00000000E+00  0.29853659E+02  0.11713125E+02  0.50000000E+00  0.00000000E+00
  0.00000000E+00  0.29853659E+02  0.12689219E+02  0.50000000E+00  0.00000000E+00
  0.00000000E+00  0.29853659E+02  0.13665312E+02  0.50000000E+00  0.00000000E+00
  0.00000000E+00  0.29853659E+02  0.14641406E+02  0.50000000E+00  0.00000000E+00
  0.00000000E+00  0.29853659E+02  0.15617500E+02  0.50000000E+00  0.00000000E+00
  0.00000000E+00  0.29853659E+02  0.16593594E+02  0.50000000E+00  0.00000000E+00
  0.00000000E+00  0.29853659E+02  0.17569687E+02  0.50000000E+00  0.00000000E+00
  0.00000000E+00  0.29853659E+02  0.18545781E+02  0.50000000E+00  0.00000000E+00
  0.00000000E+00  0.29853659E+02  0.19521875E+02  0.50000000E+00  0.00000000E+00
  0.00000000E+00  0.29853659E+02  0.20497969E+02  0.49794431E+00  0.12833316E-09
  0.00000000E+00  0.32341463E+02  0.00000000E+00  0.50000000E+00  0.00000000E+00
  0.00000000E+00  0.32341463E+02  0.97609173E+00  0.50000000E+00  0.00000000E+00
  0.00000000E+00  0.32341463E+02  0.19521835E+01  0.50000000E+00  0.00000000E+00
  0.00000000E+00  0.32341463E+02  0.29282752E+01  0.50000000E+00  0.00000000E+00
  0.00000000E+00  0.32341463E+02  0.39043669E+01  0.50000000E+00  0.00000000E+00
  0.00000000E+00  0.32341463E+02  0.48804586E+01  0.50000000E+00  0.00000000E+00
  0.00000000E+00  0.32341463E+02  0.58565504E+01  0.50000000E+00  0.00000000E+00
  0.00000000E+00  0.32341463E+02  0.68326421E+01  0.50000000E+00  0.00000000E+00
  0.00000000E+00  0.32341463E+02  0.78087338E+01  0.50000000E+00  0.00000000E+00
  0.00000000E+00  0.32341463E+02  0.87848256E+01  0.50000000E+00  0.00000000E+00
  0.00000000E+00  0.32341463E+02  0.97609173E+01  0.50000000E+00  0.00000000E+00
  0.00000000E+00  0.32341463E+02  0.10737009E+02  0.50000000E+00  0.00000000E+00
  0.00000000E+00  0.32341463E+02  0.11713101E+02  0.50000000E+00  0.00000000E+00
  0.00000000E+00  0.32341463E+02  0.12689192E+02  0.50000000E+00  0.00000000E+00
  0.00000000E+00  0.32341463E+02  0.13665284E+02  0.50000000E+00  0.00000000E+00
  0.00000000E+00  0.32341463E+02  0.14641376E+02  0.50000000E+00  0.00000000E+00
  0.00000000E+00  0.32341463E+02  0.15617468E+02  0.50000000E+00  0.00000000E+00
  0.00000000E+00  0.32341463E+02  0.16593559E+02  0.50000000E+00  0.00000000E+00
  0.00000000E+00  0.32341463E+02  0.17569651E+02  0.50000000E+00  0.00000000E+00
  0.00000000E+00  0.32341463E+02  0.18545743E+02  0.50000000E+00  0.00000000E+00
  0.00000000E+00  0.32341463E+02  0.19521835E+02  0.50000000E+00  0.00000000E+00
  0.00000000E+00  0.32341463E+02  0.20497926E+02  0.49790145E+00  0.11814406E-09
  0.00000000E+00  0.34829268E+02  0.00000000E+00  0.50000000E+00  0.00000000E+00
  0.00000000E+00  0.34829268E+02  0.97610419E+00  0.50000000E+00  0.00000000E+00
  0.00000000E+00  0.34829268E+02  0.19522084E+01  0.50000000E+00  0.00000000E+00
  0.00000000E+00  0.34829268E+02  0.29283126E+01  0.50000000E+00  0.00000000E+00
  0.00000000E+00  0.34829268E+02  0.39044168E+01  0.50000000E+00  0.00000000E+00
  0.00000000E+00  0.34829268E+02  0.48805210E+01  0.50000000E+00  0.00000000E+00
  0.00000000E+00  0.34829268E+02  0.58566252E+01  0.50000000E+00  0.00000000E+00
  0.00000000E+00  0.34829268E+02  0.68327294E+01  0.50000000E+00  0.00000000E+00
  0.00000000E+00  0.34829268E+02  0.78088336E+01  0.50000000E+00  0.00000000E+00
  0.00000000E+00  0.34829268E+02  0.87849377E+01  0.50000000E+00  0.00000000E+00
  0.00000000E+00  0.34829268E+02  0.97610419E+01  0.50000000E+00  0.00000000E+00
  0.00000000E+00  0.34829268E+02  0.10737146E+02  0.50000000E+00  0.00000000E+00
  0.00000000E+00  0.34829268E+02  0.11713250E+02  0.50000000E+00  0.00000000E+00
  0.00000000E+00  0.34829268E+02  0.12689355E+02  0.50000000E+00  0.00000000E+00
  0.00000000E+00  0.34829268E+02  0.13665459E+02  0.50000000E+00  0.00000000E+00
  0.00000000E+00  0.34829268E+02  0.14641563E+02  0.50000000E+00  0.00000000E+00
  0.00000000E+00  0.34829268E+02  0.15617667E+02  0.50000000E+00  0.00000000E+00
  0.00000000E+00  0.34829268E+02  0.16593771E+02  0.50000000E+00  0.00000000E+00
  0.00000000E+00  0.34829268E+02  0.17569875E+02  0.50000000E+00  0.00000000E+00
  0.00000000E+00  0.34829268E+02  0.18545980E+02  0.50000000E+00  0.00000000E+00
  0.00000000E+00  0.34829268E+02  0.19522084E+02  0.50000000E+00  0.00000000E+00
  0.00000000E+00  0.34829268E+02  0.20498188E+02  0.49816647E+00  0.10115208E-09
  0.00000000E+00  0.37317073E+02  0.00000000E+00  0.50000000E+00  0.00000000E+00
  0.00000000E+00  0.37317073E+02  0.97611153E+00  0.50000000E+00  0.00000000E+00
  0.00000000E+00  0.37317073E+02  0.19522231E+01  0.50000000E+00  0.00000000E+00
  0.00000000E+00  0.37317073E+02  0.29283346E+01  0.50000000E+00  0.00000000E+00
  0.00000000E+00  0.37317073E+02  0.39044461E+01  0.50000000E+00  0.00000000E+00
  0.00000000E+00  0.37317073E+02  0.48805577E+01  0.50000000E+00  0.00000000E+00
  0.00000000E+00  0.37317073E+02  0.58566692E+01  0.50000000E+00  0.00000000E+00
  0.00000000E+00  0.37317073E+02  0.68327807E+01  0.50000000E+00  0.00000000E+00
  0.00000000E+00  0.37317073E+02  0.78088923E+01  0.50000000E+00  0.00000000E+00
  0.00000000E+00  0.37317073E+02  0.87850038E+01  0.50000000E+00  0.00000000E+00
  0.00000000E+00  0.37317073E+02  0.97611153E+01  0.50000000E+00  0.00000000E+00
  0.00000000E+00  0.37317073E+02  0.10737227E+02  0.50000000E+00  0.00000000E+00
  0.00000000E+00  0.37317073E+02  0.11713338E+02  0.50000000E+00  0.00000000E+00
  0.00000000E+00  0.37317073E+02  0.12689450E+02  0.50000000E+00  0.00000000E+00
  0.00000000E+00  0.37317073E+02  0.13665561E+02  0.50000000E+00  0.00000000E+00
  0.00000000E+00  0.37317073E+02  0.14641673E+02  0.50000000E+00  0.00000000E+00
  0.00000000E+00  0.37317073E+02  0.15617785E+02  0.50000000E+00  0.00000000E+00
  0.00000000E+00  0.37317073E+02  0.16593896E+02  0.50000000E+00  0.00000000E+00
  0.00000000E+00  0.37317073E+02  0.17570008E+02  0.50000000E+00  0.00000000E+00
  0.00000000E+00  0.37317073E+02  0.18546119E+02  0.50000000E+00  0.00000000E+00
  0.00000000E+00  0.37317073E+02  0.19522231E+02  0.50000000E+00  0.00000000E+00
  0.00000000E+00  0.37317073E+02  0.20498342E+02  0.49832252E+00  0.91027569E-10
  0.00000000E+00  0.39804878E+02  0.00000000E+00  0.50000000E+00  0.00000000E+00
  0.00000000E+00  0.39804878E+02  0.97611867E+00  0.50000000E+00  0.00000000E+00
  0.00000000E+00  0.39804878E+02  0.19522373E+01  0.50000000E+00  0.00000000E+00
  0.00000000E+00  0.39804878E+02  0.29283560E+01  0.50000000E+00  0.00000000E+00
  0.00000000E+00  0.39804878E+02  0.39044747E+01  0.50000000E+00  0.00000000E+00
  0.00000000E+00  0.39804878E+02  0.48805933E+01  0.50000000E+00  0.00000000E+00
  0.00000000E+00  0.39804878E+02  0.58567120E+01  0.50000000E+00  0.00000000E+00
  0.00000000E+00  0.39804878E+02  0.68328307E+01  0.50000000E+00  0.00000000E+00
  0.00000000E+00  0.39804878E+02  0.78089494E+01  0.50000000E+00  0.00000000E+00
  0.00000000E+00  0.39804878E+02  0.87850680E+01  0.50000000E+00  0.00000000E+00
  0.00000000E+00  0.39804878E+02  0.97611867E+01  0.50000000E+00  0.00000000E+00
  0.00000000E+00  0.39804878E+02  0.10737305E+02  0.50000000E+00  0.00000000E+00
  0.00000000E+00  0.39804878E+02  0.11713424E+02  0.50000000E+00  0.00000000E+00
  0.00000000E+00  0.39804878E+02  0.12689543E+02  0.50000000E+00  0.00000000E+00
  0.00000000E+00  0.39804878E+02  0.13665661E+02  0.50000000E+00  0.00000000E+00
  0.00000000E+00  0.39804878E+02  0.14641780E+02  0.50000000E+00  0.00000000E+00