title="xy head"
variables="x","y","head"
zone i=    42, j=    42,T= "t=     0.0 days; xy section   1"
  0.00000000E+00  0.00000000E+00  0.50000000E+00
  0.00000000E+00  0.24878049E+01  0.50000000E+00
  0.00000000E+00  0.49756098E+01  0.50000000E+00
  0.00000000E+00  0.74634146E+01  0.50000000E+00
  0.00000000E+00  0.99512195E+01  0.50000000E+00
  0.00000000E+00  0.12439024E+02  0.50000000E+00
  0.00000000E+00  0.14926829E+02  0.50000000E+00
  0.00000000E+00  0.17414634E+02  0.50000000E+00
  0.00000000E+00  0.19902439E+02  0.50000000E+00
  0.00000000E+00  0.22390244E+02  0.50000000E+00
  0.00000000E+00  0.24878049E+02  0.50000000E+00
  0.00000000E+00  0.27365854E+02  0.50000000E+00
  0.00000000E+00  0.29853659E+02  0.50000000E+00
  0.00000000E+00  0.32341463E+02  0.50000000E+00
  0.00000000E+00  0.34829268E+02  0.50000000E+00
  0.00000000E+00  0.37317073E+02  0.50000000E+00
  0.00000000E+00  0.39804878E+02  0.50000000E+00
  0.00000000E+00  0.42292683E+02  0.50000000E+00
  0.00000000E+00  0.44780488E+02  0.50000000E+00
  0.00000000E+00  0.47268293E+02  0.50000000E+00
  0.00000000E+00  0.49756098E+02  0.50000000E+00
  0.00000000E+00  0.52243902E+02  0.50000000E+00
  0.00000000E+00  0.54731707E+02  0.50000000E+00
  0.00000000E+00  0.57219512E+02  0.50000000E+00
  0.00000000E+00  0.59707317E+02  0.50000000E+00
  0.00000000E+00  0.62195122E+02  0.50000000E+00
  0.00000000E+00  0.64682927E+02  0.50000000E+00
  0.00000000E+00  0.67170732E+02  0.50000000E+00
  0.00000000E+00  0.69658537E+02  0.50000000E+00
  0.00000000E+00  0.72146341E+02  0.50000000E+00
  0.00000000E+00  0.74634146E+02  0.50000000E+00
  0.00000000E+00  0.77121951E+02  0.50000000E+00
  0.00000000E+00  0.79609756E+02  0.50000000E+00
  0.00000000E+00  0.82097561E+02  0.50000000E+00
  0.00000000E+00  0.84585366E+02  0.50000000E+00
  0.00000000E+00  0.87073171E+02  0.50000000E+00
  0.00000000E+00  0.89560976E+02  0.50000000E+00
  0.00000000E+00  0.92048780E+02  0.50000000E+00
  0.00000000E+00  0.94536585E+02  0.50000000E+00
  0.00000000E+00  0.97024390E+02  0.50000000E+00
  0.00000000E+00  0.99512195E+02  0.50000000E+00
  0.00000000E+00  0.10200000E+03  0.20000000E+02
  0.24878049E+01  0.00000000E+00  0.20000000E+02
  0.24878049E+01  0.24878049E+01  0.20000000E+02
  0.24878049E+01  0.49756098E+01  0.20000000E+02
  0.24878049E+01  0.74634146E+01  0.20000000E+02
  0.24878049E+01  0.99512195E+01  0.20000000E+02
  0.24878049E+01  0.12439024E+02  0.20000000E+02
  0.24878049E+01  0.14926829E+02  0.20000000E+02
  0.24878049E+01  0.17414634E+02  0.20000000E+02
  0.24878049E+01  0.19902439E+02  0.20000000E+02
  0.24878049E+01  0.22390244E+02  0.20000000E+02
  0.24878049E+01  0.24878049E+02  0.20000000E+02
  0.24878049E+01  0.27365854E+02  0.20000000E+02
  0.24878049E+01  0.29853659E+02  0.20000000E+02
  0.24878049E+01  0.32341463E+02  0.20000000E+02
  0.24878049E+01  0.34829268E+02  0.20000000E+02
  0.24878049E+01  0.37317073E+02  0.20000000E+02
  0.24878049E+01  0.39804878E+02  0.20000000E+02
  0.24878049E+01  0.42292683E+02  0.20000000E+02
  0.24878049E+01  0.44780488E+02  0.20000000E+02
  0.24878049E+01  0.47268293E+02  0.20000000E+02
  0.24878049E+01  0.49756098E+02  0.20000000E+02
  0.24878049E+01  0.52243902E+02  0.20000000E+02
  0.24878049E+01  0.54731707E+02  0.20000000E+02
  0.24878049E+01  0.57219512E+02  0.20000000E+02
  0.24878049E+01  0.59707317E+02  0.20000000E+02
  0.24878049E+01  0.62195122E+02  0.20000000E+02
  0.24878049E+01  0.64682927E+02  0.20000000E+02
  0.24878049E+01  0.67170732E+02  0.20000000E+02
  0.24878049E+01  0.69658537E+02  0.20000000E+02
  0.24878049E+01  0.72146341E+02  0.20000000E+02
  0.24878049E+01  0.74634146E+02  0.20000000E+02
  0.24878049E+01  0.77121951E+02  0.20000000E+02
  0.24878049E+01  0.79609756E+02  0.20000000E+02
  0.24878049E+01  0.82097561E+02  0.20000000E+02
  0.24878049E+01  0.84585366E+02  0.20000000E+02
  0.24878049E+01  0.87073171E+02  0.20000000E+02
  0.24878049E+01  0.89560976E+02  0.20000000E+02
  0.24878049E+01  0.92048780E+02  0.20000000E+02
  0.24878049E+01  0.94536585E+02  0.20000000E+02
  0.24878049E+01  0.97024390E+02  0.20000000E+02
  0.24878049E+01  0.99512195E+02  0.20000000E+02
  0.24878049E+01  0.10200000E+03  0.20000000E+02
  0.49756098E+01  0.00000000E+00  0.20000000E+02
  0.49756098E+01  0.24878049E+01  0.20000000E+02
  0.49756098E+01  0.49756098E+01  0.20000000E+02
  0.49756098E+01  0.74634146E+01  0.20000000E+02
  0.49756098E+01  0.99512195E+01  0.20000000E+02
  0.49756098E+01  0.12439024E+02  0.20000000E+02
  0.49756098E+01  0.14926829E+02  0.20000000E+02
  0.49756098E+01  0.17414634E+02  0.20000000E+02
  0.49756098E+01  0.19902439E+02  0.20000000E+02
  0.49756098E+01  0.22390244E+02  0.20000000E+02
  0.49756098E+01  0.24878049E+02  0.20000000E+02
  0.49756098E+01  0.27365854E+02  0.20000000E+02
  0.49756098E+01  0.29853659E+02  0.20000000E+02
  0.49756098E+01  0.32341463E+02  0.20000000E+02
  0.49756098E+01  0.34829268E+02  0.20000000E+02
  0.49756098E+01  0.37317073E+02  0.20000000E+02
  0.49756098E+01  0.39804878E+02  0.20000000E+02
  0.49756098E+01  0.42292683E+02  0.20000000E+02
  0.49756098E+01  0.44780488E+02  0.20000000E+02
  0.49756098E+01  0.47268293E+02  0.20000000E+02
  0.49756098E+01  0.49756098E+02  0.20000000E+02
  0.49756098E+01  0.52243902E+02  0.20000000E+02
  0.49756098E+01  0.54731707E+02  0.20000000E+02
  0.49756098E+01  0.57219512E+02  0.20000000E+02
  0.49756098E+01  0.59707317E+02  0.20000000E+02
  0.49756098E+01  0.62195122E+02  0.20000000E+02
  0.49756098E+01  0.64682927E+02  0.20000000E+02
  0.49756098E+01  0.67170732E+02  0.20000000E+02
  0.49756098E+01  0.69658537E+02  0.20000000E+02
  0.49756098E+01  0.72146341E+02  0.20000000E+02
  0.49756098E+01  0.74634146E+02  0.20000000E+02
  0.49756098E+01  0.77121951E+02  0.20000000E+02
  0.49756098E+01  0.79609756E+02  0.20000000E+02
  0.49756098E+01  0.82097561E+02  0.20000000E+02
  0.49756098E+01  0.84585366E+02  0.20000000E+02
  0.49756098E+01  0.87073171E+02  0.20000000E+02
  0.49756098E+01  0.89560976E+02  0.20000000E+02
  0.49756098E+01  0.92048780E+02  0.20000000E+02
  0.49756098E+01  0.94536585E+02  0.20000000E+02
  0.49756098E+01  0.97024390E+02  0.20000000E+02
  0.49756098E+01  0.99512195E+02  0.20000000E+02
  0.49756098E+01  0.10200000E+03  0.20000000E+02
  0.74634146E+01  0.00000000E+00  0.20000000E+02
  0.74634146E+01  0.24878049E+01  0.20000000E+02
  0.74634146E+01  0.49756098E+01  0.20000000E+02
  0.74634146E+01  0.74634146E+01  0.20000000E+02
  0.74634146E+01  0.99512195E+01  0.20000000E+02
  0.74634146E+01  0.12439024E+02  0.20000000E+02
  0.74634146E+01  0.14926829E+02  0.20000000E+02
  0.74634146E+01  0.17414634E+02  0.20000000E+02
  0.74634146E+01  0.19902439E+02  0.20000000E+02
  0.74634146E+01  0.22390244E+02  0.20000000E+02
  0.74634146E+01  0.24878049E+02  0.20000000E+02
  0.74634146E+01  0.27365854E+02  0.20000000E+02
  0.74634146E+01  0.29853659E+02  0.20000000E+02
  0.74634146E+01  0.32341463E+02  0.20000000E+02
  0.74634146E+01  0.34829268E+02  0.20000000E+02
  0.74634146E+01  0.37317073E+02  0.20000000E+02
  0.74634146E+01  0.39804878E+02  0.20000000E+02
  0.74634146E+01  0.42292683E+02  0.20000000E+02
  0.74634146E+01  0.44780488E+02  0.20000000E+02
  0.74634146E+01  0.47268293E+02  0.20000000E+02
  0.74634146E+01  0.49756098E+02  0.20000000E+02
  0.74634146E+01  0.52243902E+02  0.20000000E+02
  0.74634146E+01  0.54731707E+02  0.20000000E+02
  0.74634146E+01  0.57219512E+02  0.20000000E+02
  0.74634146E+01  0.59707317E+02  0.20000000E+02
  0.74634146E+01  0.62195122E+02  0.20000000E+02
  0.74634146E+01  0.64682927E+02  0.20000000E+02
  0.74634146E+01  0.67170732E+02  0.20000000E+02
  0.74634146E+01  0.69658537E+02  0.20000000E+02
  0.74634146E+01  0.72146341E+02  0.20000000E+02
  0.74634146E+01  0.74634146E+02  0.20000000E+02
  0.74634146E+01  0.77121951E+02  0.20000000E+02
  0.74634146E+01  0.79609756E+02  0.20000000E+02
  0.74634146E+01  0.82097561E+02  0.20000000E+02
  0.74634146E+01  0.84585366E+02  0.20000000E+02
  0.74634146E+01  0.87073171E+02  0.20000000E+02
  0.74634146E+01  0.89560976E+02  0.20000000E+02
  0.74634146E+01  0.92048780E+02  0.20000000E+02
  0.74634146E+01  0.94536585E+02  0.20000000E+02
  0.74634146E+01  0.97024390E+02  0.20000000E+02
  0.74634146E+01  0.99512195E+02  0.20000000E+02
  0.74634146E+01  0.10200000E+03  0.20000000E+02
  0.99512195E+01  0.00000000E+00  0.20000000E+02
  0.99512195E+01  0.24878049E+01  0.20000000E+02
  0.99512195E+01  0.49756098E+01  0.20000000E+02
  0.99512195E+01  0.74634146E+01  0.20000000E+02
  0.99512195E+01  0.99512195E+01  0.20000000E+02
  0.99512195E+01  0.12439024E+02  0.20000000E+02
  0.99512195E+01  0.14926829E+02  0.20000000E+02
  0.99512195E+01  0.17414634E+02  0.20000000E+02
  0.99512195E+01  0.19902439E+02  0.20000000E+02
  0.99512195E+01  0.22390244E+02  0.20000000E+02
  0.99512195E+01  0.24878049E+02  0.20000000E+02
  0.99512195E+01  0.27365854E+02  0.20000000E+02
  0.99512195E+01  0.29853659E+02  0.20000000E+02
  0.99512195E+01  0.32341463E+02  0.20000000E+02
  0.99512195E+01  0.34829268E+02  0.20000000E+02
  0.99512195E+01  0.37317073E+02  0.20000000E+02
  0.99512195E+01  0.39804878E+02  0.20000000E+02
  0.99512195E+01  0.42292683E+02  0.20000000E+02
  0.99512195E+01  0.44780488E+02  0.20000000E+02
  0.99512195E+01  0.47268293E+02  0.20000000E+02
  0.99512195E+01  0.49756098E+02  0.20000000E+02
  0.99512195E+01  0.52243902E+02  0.20000000E+02
  0.99512195E+01  0.54731707E+02  0.20000000E+02
  0.99512195E+01  0.57219512E+02  0.20000000E+02
  0.99512195E+01  0.59707317E+02  0.20000000E+02
  0.99512195E+01  0.62195122E+02  0.20000000E+02
  0.99512195E+01  0.64682927E+02  0.20000000E+02
  0.99512195E+01  0.67170732E+02  0.20000000E+02
  0.99512195E+01  0.69658537E+02  0.20000000E+02
  0.99512195E+01  0.72146341E+02  0.20000000E+02
  0.99512195E+01  0.74634146E+02  0.20000000E+02
  0.99512195E+01  0.77121951E+02  0.20000000E+02
  0.99512195E+01  0.79609756E+02  0.20000000E+02
  0.99512195E+01  0.82097561E+02  0.20000000E+02
  0.99512195E+01  0.84585366E+02  0.20000000E+02
  0.99512195E+01  0.87073171E+02  0.20000000E+02
  0.99512195E+01  0.89560976E+02  0.20000000E+02
  0.99512195E+01  0.92048780E+02  0.20000000E+02
  0.99512195E+01  0.94536585E+02  0.20000000E+02
  0.99512195E+01  0.97024390E+02  0.20000000E+02
  0.99512195E+01  0.99512195E+02  0.20000000E+02
  0.99512195E+01  0.10200000E+03  0.20000000E+02
  0.12439024E+02  0.00000000E+00  0.20000000E+02
  0.12439024E+02  0.24878049E+01  0.20000000E+02
  0.12439024E+02  0.49756098E+01  0.20000000E+02
  0.12439024E+02  0.74634146E+01  0.20000000E+02
  0.12439024E+02  0.99512195E+01  0.20000000E+02
  0.12439024E+02  0.12439024E+02  0.20000000E+02
  0.12439024E+02  0.14926829E+02  0.20000000E+02
  0.12439024E+02  0.17414634E+02  0.20000000E+02
  0.12439024E+02  0.19902439E+02  0.20000000E+02
  0.12439024E+02  0.22390244E+02  0.20000000E+02
  0.12439024E+02  0.24878049E+02  0.20000000E+02
  0.12439024E+02  0.27365854E+02  0.20000000E+02
  0.12439024E+02  0.29853659E+02  0.20000000E+02
  0.12439024E+02  0.32341463E+02  0.20000000E+02
  0.12439024E+02  0.34829268E+02  0.20000000E+02
  0.12439024E+02  0.37317073E+02  0.20000000E+02
  0.12439024E+02  0.39804878E+02  0.20000000E+02
  0.12439024E+02  0.42292683E+02  0.20000000E+02
  0.12439024E+02  0.44780488E+02  0.20000000E+02
  0.12439024E+02  0.47268293E+02  0.20000000E+02
  0.12439024E+02  0.49756098E+02  0.20000000E+02
  0.12439024E+02  0.52243902E+02  0.20000000E+02
  0.12439024E+02  0.54731707E+02  0.20000000E+02
  0.12439024E+02  0.57219512E+02  0.20000000E+02
  0.12439024E+02  0.59707317E+02  0.20000000E+02
  0.12439024E+02  0.62195122E+02  0.20000000E+02
  0.12439024E+02  0.64682927E+02  0.20000000E+02
  0.12439024E+02  0.67170732E+02  0.20000000E+02
  0.12439024E+02  0.69658537E+02  0.20000000E+02
  0.12439024E+02  0.72146341E+02  0.20000000E+02
  0.12439024E+02  0.74634146E+02  0.20000000E+02
  0.12439024E+02  0.77121951E+02  0.20000000E+02
  0.12439024E+02  0.79609756E+02  0.20000000E+02
  0.12439024E+02  0.82097561E+02  0.20000000E+02
  0.12439024E+02  0.84585366E+02  0.20000000E+02
  0.12439024E+02  0.87073171E+02  0.20000000E+02
  0.12439024E+02  0.89560976E+02  0.20000000E+02
  0.12439024E+02  0.92048780E+02  0.20000000E+02
  0.12439024E+02  0.94536585E+02  0.20000000E+02
  0.12439024E+02  0.97024390E+02  0.20000000E+02
  0.12439024E+02  0.99512195E+02  0.20000000E+02
  0.12439024E+02  0.10200000E+03  0.20000000E+02
  0.14926829E+02  0.00000000E+00  0.20000000E+02
  0.14926829E+02  0.24878049E+01  0.20000000E+02
  0.14926829E+02  0.49756098E+01  0.20000000E+02
  0.14926829E+02  0.74634146E+01  0.20000000E+02
  0.14926829E+02  0.99512195E+01  0.20000000E+02
  0.14926829E+02  0.12439024E+02  0.20000000E+02
  0.14926829E+02  0.14926829E+02  0.20000000E+02
  0.14926829E+02  0.17414634E+02  0.20000000E+02
  0.14926829E+02  0.19902439E+02  0.20000000E+02
  0.14926829E+02  0.22390244E+02  0.20000000E+02
  0.14926829E+02  0.24878049E+02  0.20000000E+02
  0.14926829E+02  0.27365854E+02  0.20000000E+02
  0.14926829E+02  0.29853659E+02  0.20000000E+02
  0.14926829E+02  0.32341463E+02  0.20000000E+02
  0.14926829E+02  0.34829268E+02  0.20000000E+02
  0.14926829E+02  0.37317073E+02  0.20000000E+02
  0.14926829E+02  0.39804878E+02  0.20000000E+02
  0.14926829E+02  0.42292683E+02  0.20000000E+02
  0.14926829E+02  0.44780488E+02  0.20000000E+02
  0.14926829E+02  0.47268293E+02  0.20000000E+02
  0.14926829E+02  0.49756098E+02  0.20000000E+02
  0.14926829E+02  0.52243902E+02  0.20000000E+02
  0.14926829E+02  0.54731707E+02  0.20000000E+02
  0.14926829E+02  0.57219512E+02  0.20000000E+02
  0.14926829E+02  0.59707317E+02  0.20000000E+02
  0.14926829E+02  0.62195122E+02  0.20000000E+02
  0.14926829E+02  0.64682927E+02  0.20000000E+02
  0.14926829E+02  0.67170732E+02  0.20000000E+02
  0.14926829E+02  0.69658537E+02  0.20000000E+02
  0.14926829E+02  0.72146341E+02  0.20000000E+02
  0.14926829E+02  0.74634146E+02  0.20000000E+02
  0.14926829E+02  0.77121951E+02  0.20000000E+02
  0.14926829E+02  0.79609756E+02  0.20000000E+02
  0.14926829E+02  0.82097561E+02  0.20000000E+02
  0.14926829E+02  0.84585366E+02  0.20000000E+02
  0.14926829E+02  0.87073171E+02  0.20000000E+02
  0.14926829E+02  0.89560976E+02  0.20000000E+02
  0.14926829E+02  0.92048780E+02  0.20000000E+02
  0.14926829E+02  0.94536585E+02  0.20000000E+02
  0.14926829E+02  0.97024390E+02  0.20000000E+02
  0.14926829E+02  0.99512195E+02  0.20000000E+02
  0.14926829E+02  0.10200000E+03  0.20000000E+02
  0.17414634E+02  0.00000000E+00  0.20000000E+02
  0.17414634E+02  0.24878049E+01  0.20000000E+02
  0.17414634E+02  0.49756098E+01  0.20000000E+02
  0.17414634E+02  0.74634146E+01  0.20000000E+02
  0.17414634E+02  0.99512195E+01  0.20000000E+02
  0.17414634E+02  0.12439024E+02  0.20000000E+02
  0.17414634E+02  0.14926829E+02  0.20000000E+02
  0.17414634E+02  0.17414634E+02  0.20000000E+02
  0.17414634E+02  0.19902439E+02  0.20000000E+02
  0.17414634E+02  0.22390244E+02  0.20000000E+02
  0.17414634E+02  0.24878049E+02  0.20000000E+02
  0.17414634E+02  0.27365854E+02  0.20000000E+02
  0.17414634E+02  0.29853659E+02  0.20000000E+02
  0.17414634E+02  0.32341463E+02  0.20000000E+02
  0.17414634E+02  0.34829268E+02  0.20000000E+02
  0.17414634E+02  0.37317073E+02  0.20000000E+02
  0.17414634E+02  0.39804878E+02  0.20000000E+02
  0.17414634E+02  0.42292683E+02  0.20000000E+02
  0.17414634E+02  0.44780488E+02  0.20000000E+02
  0.17414634E+02  0.47268293E+02  0.20000000E+02
  0.17414634E+02  0.49756098E+02  0.20000000E+02
  0.17414634E+02  0.52243902E+02  0.20000000E+02
  0.17414634E+02  0.54731707E+02  0.20000000E+02
  0.17414634E+02  0.57219512E+02  0.20000000E+02
  0.17414634E+02  0.59707317E+02  0.20000000E+02
  0.17414634E+02  0.62195122E+02  0.20000000E+02
  0.17414634E+02  0.64682927E+02  0.20000000E+02
  0.17414634E+02  0.67170732E+02  0.20000000E+02
  0.17414634E+02  0.69658537E+02  0.20000000E+02
  0.17414634E+02  0.72146341E+02  0.20000000E+02
  0.17414634E+02  0.74634146E+02  0.20000000E+02
  0.17414634E+02  0.77121951E+02  0.20000000E+02
  0.17414634E+02  0.79609756E+02  0.20000000E+02
  0.17414634E+02  0.82097561E+02  0.20000000E+02
  0.17414634E+02  0.84585366E+02  0.20000000E+02
  0.17414634E+02  0.87073171E+02  0.20000000E+02
  0.17414634E+02  0.89560976E+02  0.20000000E+02
  0.17414634E+02  0.92048780E+02  0.20000000E+02
  0.17414634E+02  0.94536585E+02  0.20000000E+02
  0.17414634E+02  0.97024390E+02  0.20000000E+02
  0.17414634E+02  0.99512195E+02  0.20000000E+02
  0.17414634E+02  0.10200000E+03  0.20000000E+02
  0.19902439E+02  0.00000000E+00  0.20000000E+02
  0.19902439E+02  0.24878049E+01  0.20000000E+02
  0.19902439E+02  0.49756098E+01  0.20000000E+02
  0.19902439E+02  0.74634146E+01  0.20000000E+02
  0.19902439E+02  0.99512195E+01  0.20000000E+02
  0.19902439E+02  0.12439024E+02  0.20000000E+02
  0.19902439E+02  0.14926829E+02  0.20000000E+02
  0.19902439E+02  0.17414634E+02  0.20000000E+02
  0.19902439E+02  0.19902439E+02  0.20000000E+02
  0.19902439E+02  0.22390244E+02  0.20000000E+02
  0.19902439E+02  0.24878049E+02  0.20000000E+02
  0.19902439E+02  0.27365854E+02  0.20000000E+02
  0.19902439E+02  0.29853659E+02  0.20000000E+02
  0.19902439E+02  0.32341463E+02  0.20000000E+02
  0.19902439E+02  0.34829268E+02  0.20000000E+02
  0.19902439E+02  0.37317073E+02  0.20000000E+02
  0.19902439E+02  0.39804878E+02  0.20000000E+02
  0.19902439E+02  0.42292683E+02  0.20000000E+02
  0.19902439E+02  0.44780488E+02  0.20000000E+02
  0.19902439E+02  0.47268293E+02  0.20000000E+02
  0.19902439E+02  0.49756098E+02  0.20000000E+02
  0.19902439E+02  0.52243902E+02  0.20000000E+02
  0.19902439E+02  0.54731707E+02  0.20000000E+02
  0.19902439E+02  0.57219512E+02  0.20000000E+02
  0.19902439E+02  0.59707317E+02  0.20000000E+02
  0.19902439E+02  0.62195122E+02  0.20000000E+02
  0.19902439E+02  0.64682927E+02  0.20000000E+02
  0.19902439E+02  0.67170732E+02  0.20000000E+02
  0.19902439E+02  0.69658537E+02  0.20000000E+02
  0.19902439E+02  0.72146341E+02  0.20000000E+02
  0.19902439E+02  0.74634146E+02  0.20000000E+02
  0.19902439E+02  0.77121951E+02  0.20000000E+02
  0.19902439E+02  0.79609756E+02  0.20000000E+02
  0.19902439E+02  0.82097561E+02  0.20000000E+02
  0.19902439E+02  0.84585366E+02  0.20000000E+02
  0.19902439E+02  0.87073171E+02  0.20000000E+02
  0.19902439E+02  0.89560976E+02  0.20000000E+02
  0.19902439E+02  0.92048780E+02  0.20000000E+02
  0.19902439E+02  0.94536585E+02  0.20000000E+02
  0.19902439E+02  0.97024390E+02  0.20000000E+02
  0.19902439E+02  0.99512195E+02  0.20000000E+02
  0.19902439E+02  0.10200000E+03  0.20000000E+02
  0.22390244E+02  0.00000000E+00  0.20000000E+02
  0.22390244E+02  0.24878049E+01  0.20000000E+02
  0.22390244E+02  0.49756098E+01  0.20000000E+02
  0.22390244E+02  0.74634146E+01  0.20000000E+02
  0.22390244E+02  0.99512195E+01  0.20000000E+02
  0.22390244E+02  0.12439024E+02  0.20000000E+02
  0.22390244E+02  0.14926829E+02  0.20000000E+02
  0.22390244E+02  0.17414634E+02  0.20000000E+02
  0.22390244E+02  0.19902439E+02  0.20000000E+02
  0.22390244E+02  0.22390244E+02  0.20000000E+02
  0.22390244E+02  0.24878049E+02  0.20000000E+02
  0.22390244E+02  0.27365854E+02  0.20000000E+02
  0.22390244E+02  0.29853659E+02  0.20000000E+02
  0.22390244E+02  0.32341463E+02  0.20000000E+02
  0.22390244E+02  0.34829268E+02  0.20000000E+02
  0.22390244E+02  0.37317073E+02  0.20000000E+02
  0.22390244E+02  0.39804878E+02  0.20000000E+02
  0.22390244E+02  0.42292683E+02  0.20000000E+02
  0.22390244E+02  0.44780488E+02  0.20000000E+02
  0.22390244E+02  0.47268293E+02  0.20000000E+02
  0.22390244E+02  0.49756098E+02  0.20000000E+02
  0.22390244E+02  0.52243902E+02  0.20000000E+02
  0.22390244E+02  0.54731707E+02  0.20000000E+02
  0.22390244E+02  0.57219512E+02  0.20000000E+02
  0.22390244E+02  0.59707317E+02  0.20000000E+02
  0.22390244E+02  0.62195122E+02  0.20000000E+02
  0.22390244E+02  0.64682927E+02  0.20000000E+02
  0.22390244E+02  0.67170732E+02  0.20000000E+02
  0.22390244E+02  0.69658537E+02  0.20000000E+02
  0.22390244E+02  0.72146341E+02  0.20000000E+02
  0.22390244E+02  0.74634146E+02  0.20000000E+02
  0.22390244E+02  0.77121951E+02  0.20000000E+02
  0.22390244E+02  0.79609756E+02  0.20000000E+02
  0.22390244E+02  0.82097561E+02  0.20000000E+02
  0.22390244E+02  0.84585366E+02  0.20000000E+02
  0.22390244E+02  0.87073171E+02  0.20000000E+02
  0.22390244E+02  0.89560976E+02  0.20000000E+02
  0.22390244E+02  0.92048780E+02  0.20000000E+02
  0.22390244E+02  0.94536585E+02  0.20000000E+02
  0.22390244E+02  0.97024390E+02  0.20000000E+02
  0.22390244E+02  0.99512195E+02  0.20000000E+02
  0.22390244E+02  0.10200000E+03  0.20000000E+02
  0.24878049E+02  0.00000000E+00  0.20000000E+02
  0.24878049E+02  0.24878049E+01  0.20000000E+02
  0.24878049E+02  0.49756098E+01  0.20000000E+02
  0.24878049E+02  0.74634146E+01  0.20000000E+02
  0.24878049E+02  0.99512195E+01  0.20000000E+02
  0.24878049E+02  0.12439024E+02  0.20000000E+02
  0.24878049E+02  0.14926829E+02  0.20000000E+02
  0.24878049E+02  0.17414634E+02  0.20000000E+02
  0.24878049E+02  0.19902439E+02  0.20000000E+02
  0.24878049E+02  0.22390244E+02  0.20000000E+02
  0.24878049E+02  0.24878049E+02  0.20000000E+02
  0.24878049E+02  0.27365854E+02  0.20000000E+02
  0.24878049E+02  0.29853659E+02  0.20000000E+02
  0.24878049E+02  0.32341463E+02  0.20000000E+02
  0.24878049E+02  0.34829268E+02  0.20000000E+02
  0.24878049E+02  0.37317073E+02  0.20000000E+02
  0.24878049E+02  0.39804878E+02  0.20000000E+02
  0.24878049E+02  0.42292683E+02  0.20000000E+02
  0.24878049E+02  0.44780488E+02  0.20000000E+02
  0.24878049E+02  0.47268293E+02  0.20000000E+02
  0.24878049E+02  0.49756098E+02  0.20000000E+02
  0.24878049E+02  0.52243902E+02  0.20000000E+02
  0.24878049E+02  0.54731707E+02  0.20000000E+02
  0.24878049E+02  0.57219512E+02  0.20000000E+02
  0.24878049E+02  0.59707317E+02  0.20000000E+02
  0.24878049E+02  0.62195122E+02  0.20000000E+02
  0.24878049E+02  0.64682927E+02  0.20000000E+02
  0.24878049E+02  0.67170732E+02  0.20000000E+02
  0.24878049E+02  0.69658537E+02  0.20000000E+02
  0.24878049E+02  0.72146341E+02  0.20000000E+02
  0.24878049E+02  0.74634146E+02  0.20000000E+02
  0.24878049E+02  0.77121951E+02  0.20000000E+02
  0.24878049E+02  0.79609756E+02  0.20000000E+02
  0.24878049E+02  0.82097561E+02  0.20000000E+02
  0.24878049E+02  0.84585366E+02  0.20000000E+02
  0.24878049E+02  0.87073171E+02  0.20000000E+02
  0.24878049E+02  0.89560976E+02  0.20000000E+02
  0.24878049E+02  0.92048780E+02  0.20000000E+02
  0.24878049E+02  0.94536585E+02  0.20000000E+02
  0.24878049E+02  0.97024390E+02  0.20000000E+02
  0.24878049E+02  0.99512195E+02  0.20000000E+02
  0.24878049E+02  0.10200000E+03  0.20000000E+02
  0.27365854E+02  0.00000000E+00  0.20000000E+02
  0.27365854E+02  0.24878049E+01  0.20000000E+02
  0.27365854E+02  0.49756098E+01  0.20000000E+02
  0.27365854E+02  0.74634146E+01  0.20000000E+02
  0.27365854E+02  0.99512195E+01  0.20000000E+02
  0.27365854E+02  0.12439024E+02  0.20000000E+02
  0.27365854E+02  0.14926829E+02  0.20000000E+02
  0.27365854E+02  0.17414634E+02  0.20000000E+02
  0.27365854E+02  0.19902439E+02  0.20000000E+02
  0.27365854E+02  0.22390244E+02  0.20000000E+02
  0.27365854E+02  0.24878049E+02  0.20000000E+02
  0.27365854E+02  0.27365854E+02  0.20000000E+02
  0.27365854E+02  0.29853659E+02  0.20000000E+02
  0.27365854E+02  0.32341463E+02  0.20000000E+02
  0.27365854E+02  0.34829268E+02  0.20000000E+02
  0.27365854E+02  0.37317073E+02  0.20000000E+02
  0.27365854E+02  0.39804878E+02  0.20000000E+02
  0.27365854E+02  0.42292683E+02  0.20000000E+02
  0.27365854E+02  0.44780488E+02  0.20000000E+02
  0.27365854E+02  0.47268293E+02  0.20000000E+02
  0.27365854E+02  0.49756098E+02  0.20000000E+02
  0.27365854E+02  0.52243902E+02  0.20000000E+02
  0.27365854E+02  0.54731707E+02  0.20000000E+02
  0.27365854E+02  0.57219512E+02  0.20000000E+02
  0.27365854E+02  0.59707317E+02  0.20000000E+02
  0.27365854E+02  0.62195122E+02  0.20000000E+02
  0.27365854E+02  0.64682927E+02  0.20000000E+02
  0.27365854E+02  0.67170732E+02  0.20000000E+02
  0.27365854E+02  0.69658537E+02  0.20000000E+02
  0.27365854E+02  0.72146341E+02  0.20000000E+02
  0.27365854E+02  0.74634146E+02  0.20000000E+02
  0.27365854E+02  0.77121951E+02  0.20000000E+02
  0.27365854E+02  0.79609756E+02  0.20000000E+02
  0.27365854E+02  0.82097561E+02  0.20000000E+02
  0.27365854E+02  0.84585366E+02  0.20000000E+02
  0.27365854E+02  0.87073171E+02  0.20000000E+02
  0.27365854E+02  0.89560976E+02  0.20000000E+02
  0.27365854E+02  0.92048780E+02  0.20000000E+02
  0.27365854E+02  0.94536585E+02  0.20000000E+02
  0.27365854E+02  0.97024390E+02  0.20000000E+02
  0.27365854E+02  0.99512195E+02  0.20000000E+02
  0.27365854E+02  0.10200000E+03  0.20000000E+02
  0.29853659E+02  0.00000000E+00  0.20000000E+02
  0.29853659E+02  0.24878049E+01  0.20000000E+02
  0.29853659E+02  0.49756098E+01  0.20000000E+02
  0.29853659E+02  0.74634146E+01  0.20000000E+02
  0.29853659E+02  0.99512195E+01  0.20000000E+02
  0.29853659E+02  0.12439024E+02  0.20000000E+02
  0.29853659E+02  0.14926829E+02  0.20000000E+02
  0.29853659E+02  0.17414634E+02  0.20000000E+02
  0.29853659E+02  0.19902439E+02  0.20000000E+02
  0.29853659E+02  0.22390244E+02  0.20000000E+02
  0.29853659E+02  0.24878049E+02  0.20000000E+02
  0.29853659E+02  0.27365854E+02  0.20000000E+02
  0.29853659E+02  0.29853659E+02  0.20000000E+02
  0.29853659E+02  0.32341463E+02  0.20000000E+02
  0.29853659E+02  0.34829268E+02  0.20000000E+02
  0.29853659E+02  0.37317073E+02  0.20000000E+02
  0.29853659E+02  0.39804878E+02  0.20000000E+02
  0.29853659E+02  0.42292683E+02  0.20000000E+02
  0.29853659E+02  0.44780488E+02  0.20000000E+02
  0.29853659E+02  0.47268293E+02  0.20000000E+02
  0.29853659E+02  0.49756098E+02  0.20000000E+02
  0.29853659E+02  0.52243902E+02  0.20000000E+02
  0.29853659E+02  0.54731707E+02  0.20000000E+02
  0.29853659E+02  0.57219512E+02  0.20000000E+02
  0.29853659E+02  0.59707317E+02  0.20000000E+02
  0.29853659E+02  0.62195122E+02  0.20000000E+02
  0.29853659E+02  0.64682927E+02  0.20000000E+02
  0.29853659E+02  0.67170732E+02  0.20000000E+02
  0.29853659E+02  0.69658537E+02  0.20000000E+02
  0.29853659E+02  0.72146341E+02  0.20000000E+02
  0.29853659E+02  0.74634146E+02  0.20000000E+02
  0.29853659E+02  0.77121951E+02  0.20000000E+02
  0.29853659E+02  0.79609756E+02  0.20000000E+02
  0.29853659E+02  0.82097561E+02  0.20000000E+02
  0.29853659E+02  0.84585366E+02  0.20000000E+02
  0.29853659E+02  0.87073171E+02  0.20000000E+02
  0.29853659E+02  0.89560976E+02  0.20000000E+02
  0.29853659E+02  0.92048780E+02  0.20000000E+02
  0.29853659E+02  0.94536585E+02  0.20000000E+02
  0.29853659E+02  0.97024390E+02  0.20000000E+02
  0.29853659E+02  0.99512195E+02  0.20000000E+02
  0.29853659E+02  0.10200000E+03  0.20000000E+02
  0.32341463E+02  0.00000000E+00  0.20000000E+02
  0.32341463E+02  0.24878049E+01  0.20000000E+02
  0.32341463E+02  0.49756098E+01  0.20000000E+02
  0.32341463E+02  0.74634146E+01  0.20000000E+02
  0.32341463E+02  0.99512195E+01  0.20000000E+02
  0.32341463E+02  0.12439024E+02  0.20000000E+02
  0.32341463E+02  0.14926829E+02  0.20000000E+02
  0.32341463E+02  0.17414634E+02  0.20000000E+02
  0.32341463E+02  0.19902439E+02  0.20000000E+02
  0.32341463E+02  0.22390244E+02  0.20000000E+02
  0.32341463E+02  0.24878049E+02  0.20000000E+02
  0.32341463E+02  0.27365854E+02  0.20000000E+02
  0.32341463E+02  0.29853659E+02  0.20000000E+02
  0.32341463E+02  0.32341463E+02  0.20000000E+02
  0.32341463E+02  0.34829268E+02  0.20000000E+02
  0.32341463E+02  0.37317073E+02  0.20000000E+02
  0.32341463E+02  0.39804878E+02  0.20000000E+02
  0.32341463E+02  0.42292683E+02  0.20000000E+02
  0.32341463E+02  0.44780488E+02  0.20000000E+02
  0.32341463E+02  0.47268293E+02  0.20000000E+02
  0.32341463E+02  0.49756098E+02  0.20000000E+02
  0.32341463E+02  0.52243902E+02  0.20000000E+02
  0.32341463E+02  0.54731707E+02  0.20000000E+02
  0.32341463E+02  0.57219512E+02  0.20000000E+02
  0.32341463E+02  0.59707317E+02  0.20000000E+02
  0.32341463E+02  0.62195122E+02  0.20000000E+02
  0.32341463E+02  0.64682927E+02  0.20000000E+02
  0.32341463E+02  0.67170732E+02  0.20000000E+02
  0.32341463E+02  0.69658537E+02  0.20000000E+02
  0.32341463E+02  0.72146341E+02  0.20000000E+02
  0.32341463E+02  0.74634146E+02  0.20000000E+02
  0.32341463E+02  0.77121951E+02  0.20000000E+02
  0.32341463E+02  0.79609756E+02  0.20000000E+02
  0.32341463E+02  0.82097561E+02  0.20000000E+02
  0.32341463E+02  0.84585366E+02  0.20000000E+02
  0.32341463E+02  0.87073171E+02  0.20000000E+02
  0.32341463E+02  0.89560976E+02  0.20000000E+02
  0.32341463E+02  0.92048780E+02  0.20000000E+02
  0.32341463E+02  0.94536585E+02  0.20000000E+02
  0.32341463E+02  0.97024390E+02  0.20000000E+02
  0.32341463E+02  0.99512195E+02  0.20000000E+02
  0.32341463E+02  0.10200000E+03  0.20000000E+02
  0.34829268E+02  0.00000000E+00  0.20000000E+02
  0.34829268E+02  0.24878049E+01  0.20000000E+02
  0.34829268E+02  0.49756098E+01  0.20000000E+02
  0.34829268E+02  0.74634146E+01  0.20000000E+02
  0.34829268E+02  0.99512195E+01  0.20000000E+02
  0.34829268E+02  0.12439024E+02  0.20000000E+02
  0.34829268E+02  0.14926829E+02  0.20000000E+02
  0.34829268E+02  0.17414634E+02  0.20000000E+02
  0.34829268E+02  0.19902439E+02  0.20000000E+02
  0.34829268E+02  0.22390244E+02  0.20000000E+02
  0.34829268E+02  0.24878049E+02  0.20000000E+02
  0.34829268E+02  0.27365854E+02  0.20000000E+02
  0.34829268E+02  0.29853659E+02  0.20000000E+02
  0.34829268E+02  0.32341463E+02  0.20000000E+02
  0.34829268E+02  0.34829268E+02  0.20000000E+02
  0.34829268E+02  0.37317073E+02  0.20000000E+02
  0.34829268E+02  0.39804878E+02  0.20000000E+02
  0.34829268E+02  0.42292683E+02  0.20000000E+02
  0.34829268E+02  0.44780488E+02  0.20000000E+02
  0.34829268E+02  0.47268293E+02  0.20000000E+02
  0.34829268E+02  0.49756098E+02  0.20000000E+02
  0.34829268E+02  0.52243902E+02  0.20000000E+02