title="2d K section "
variables="x","z","Kx","logKx","Kz","logKz","porosity"
zone i=    22, j=    42,T="Initial K at t=0"
   0.0000000E+00   0.0000000E+00   0.1087673E-03  -0.3963502E+01   0.1087673E-03  -0.3963502E+01   0.3000000E+00
   0.0000000E+00   0.9761905E+00   0.6048592E-04  -0.4218346E+01   0.6048592E-04  -0.4218346E+01   0.3000000E+00
   0.0000000E+00   0.1952381E+01   0.1277909E-04  -0.4893500E+01   0.1277909E-04  -0.4893500E+01   0.3000000E+00
   0.0000000E+00   0.2928571E+01   0.2407829E-04  -0.4618374E+01   0.2407829E-04  -0.4618374E+01   0.3000000E+00
   0.0000000E+00   0.3904762E+01   0.4693720E-04  -0.4328483E+01   0.4693720E-04  -0.4328483E+01   0.3000000E+00
   0.0000000E+00   0.4880952E+01   0.1876344E-04  -0.4726687E+01   0.1876344E-04  -0.4726687E+01   0.3000000E+00
   0.0000000E+00   0.5857143E+01   0.1932714E-04  -0.4713832E+01   0.1932714E-04  -0.4713832E+01   0.3000000E+00
   0.0000000E+00   0.6833333E+01   0.1032750E-04  -0.4986005E+01   0.1032750E-04  -0.4986005E+01   0.3000000E+00
   0.0000000E+00   0.7809524E+01   0.1768843E-04  -0.4752311E+01   0.1768843E-04  -0.4752311E+01   0.3000000E+00
   0.0000000E+00   0.8785714E+01   0.4272612E-04  -0.4369306E+01   0.4272612E-04  -0.4369306E+01   0.3000000E+00
   0.0000000E+00   0.9761905E+01   0.1258022E-03  -0.3900312E+01   0.1258022E-03  -0.3900312E+01   0.3000000E+00
   0.0000000E+00   0.1073810E+02   0.9422314E-07  -0.7025842E+01   0.9422314E-07  -0.7025842E+01   0.3000000E+00
   0.0000000E+00   0.1171429E+02   0.6439048E-07  -0.7191178E+01   0.6439048E-07  -0.7191178E+01   0.3000000E+00
   0.0000000E+00   0.1269048E+02   0.3696109E-07  -0.7432255E+01   0.3696109E-07  -0.7432255E+01   0.3000000E+00
   0.0000000E+00   0.1366667E+02   0.2178814E-07  -0.7661780E+01   0.2178814E-07  -0.7661780E+01   0.3000000E+00
   0.0000000E+00   0.1464286E+02   0.4336557E-07  -0.7362855E+01   0.4336557E-07  -0.7362855E+01   0.3000000E+00
   0.0000000E+00   0.1561905E+02   0.1183339E-03  -0.3926891E+01   0.1183339E-03  -0.3926891E+01   0.3000000E+00
   0.0000000E+00   0.1659524E+02   0.9299173E-04  -0.4031556E+01   0.9299173E-04  -0.4031556E+01   0.3000000E+00
   0.0000000E+00   0.1757143E+02   0.8250101E-04  -0.4083541E+01   0.8250101E-04  -0.4083541E+01   0.3000000E+00
   0.0000000E+00   0.1854762E+02   0.4177970E-04  -0.4379035E+01   0.4177970E-04  -0.4379035E+01   0.3000000E+00
   0.0000000E+00   0.1952381E+02   0.3311911E-04  -0.4479921E+01   0.3311911E-04  -0.4479921E+01   0.3000000E+00
   0.0000000E+00   0.2050000E+02   0.3311911E-04  -0.4479921E+01   0.3311911E-04  -0.4479921E+01   0.3000000E+00
   0.2487805E+01   0.0000000E+00   0.7569488E-04  -0.4120933E+01   0.7569488E-04  -0.4120933E+01   0.3000000E+00
   0.2487805E+01   0.9761905E+00   0.2959811E-04  -0.4528736E+01   0.2959811E-04  -0.4528736E+01   0.3000000E+00
   0.2487805E+01   0.1952381E+01   0.4506521E-04  -0.4346159E+01   0.4506521E-04  -0.4346159E+01   0.3000000E+00
   0.2487805E+01   0.2928571E+01   0.3046902E-04  -0.4516141E+01   0.3046902E-04  -0.4516141E+01   0.3000000E+00
   0.2487805E+01   0.3904762E+01   0.1304638E-04  -0.4884510E+01   0.1304638E-04  -0.4884510E+01   0.3000000E+00
   0.2487805E+01   0.4880952E+01   0.8337059E-05  -0.5078987E+01   0.8337059E-05  -0.5078987E+01   0.3000000E+00
   0.2487805E+01   0.5857143E+01   0.7598954E-05  -0.5119246E+01   0.7598954E-05  -0.5119246E+01   0.3000000E+00
   0.2487805E+01   0.6833333E+01   0.1248353E-04  -0.4903662E+01   0.1248353E-04  -0.4903662E+01   0.3000000E+00
   0.2487805E+01   0.7809524E+01   0.1986800E-04  -0.4701846E+01   0.1986800E-04  -0.4701846E+01   0.3000000E+00
   0.2487805E+01   0.8785714E+01   0.5823640E-04  -0.4234805E+01   0.5823640E-04  -0.4234805E+01   0.3000000E+00
   0.2487805E+01   0.9761905E+01   0.1012214E-03  -0.3994728E+01   0.1012214E-03  -0.3994728E+01   0.3000000E+00
   0.2487805E+01   0.1073810E+02   0.4720340E-07  -0.7326027E+01   0.4720340E-07  -0.7326027E+01   0.3000000E+00
   0.2487805E+01   0.1171429E+02   0.1135412E-06  -0.6944846E+01   0.1135412E-06  -0.6944846E+01   0.3000000E+00
   0.2487805E+01   0.1269048E+02   0.1421618E-06  -0.6847217E+01   0.1421618E-06  -0.6847217E+01   0.3000000E+00
   0.2487805E+01   0.1366667E+02   0.5364916E-07  -0.7270437E+01   0.5364916E-07  -0.7270437E+01   0.3000000E+00
   0.2487805E+01   0.1464286E+02   0.8041579E-04  -0.4094659E+01   0.8041579E-04  -0.4094659E+01   0.3000000E+00
   0.2487805E+01   0.1561905E+02   0.6785754E-04  -0.4168402E+01   0.6785754E-04  -0.4168402E+01   0.3000000E+00
   0.2487805E+01   0.1659524E+02   0.8561072E-04  -0.4067472E+01   0.8561072E-04  -0.4067472E+01   0.3000000E+00
   0.2487805E+01   0.1757143E+02   0.8331350E-04  -0.4079285E+01   0.8331350E-04  -0.4079285E+01   0.3000000E+00
   0.2487805E+01   0.1854762E+02   0.4057737E-04  -0.4391716E+01   0.4057737E-04  -0.4391716E+01   0.3000000E+00
   0.2487805E+01   0.1952381E+02   0.2762747E-04  -0.4558659E+01   0.2762747E-04  -0.4558659E+01   0.3000000E+00
   0.2487805E+01   0.2050000E+02   0.2762747E-04  -0.4558659E+01   0.2762747E-04  -0.4558659E+01   0.3000000E+00
   0.4975610E+01   0.0000000E+00   0.1009081E-03  -0.3996074E+01   0.1009081E-03  -0.3996074E+01   0.3000000E+00
   0.4975610E+01   0.9761905E+00   0.3603932E-04  -0.4443223E+01   0.3603932E-04  -0.4443223E+01   0.3000000E+00
   0.4975610E+01   0.1952381E+01   0.3056362E-04  -0.4514795E+01   0.3056362E-04  -0.4514795E+01   0.3000000E+00
   0.4975610E+01   0.2928571E+01   0.4791893E-04  -0.4319493E+01   0.4791893E-04  -0.4319493E+01   0.3000000E+00
   0.4975610E+01   0.3904762E+01   0.2038115E-04  -0.4690771E+01   0.2038115E-04  -0.4690771E+01   0.3000000E+00
   0.4975610E+01   0.4880952E+01   0.8619358E-05  -0.5064525E+01   0.8619358E-05  -0.5064525E+01   0.3000000E+00
   0.4975610E+01   0.5857143E+01   0.1936584E-04  -0.4712964E+01   0.1936584E-04  -0.4712964E+01   0.3000000E+00
   0.4975610E+01   0.6833333E+01   0.1388363E-04  -0.4857497E+01   0.1388363E-04  -0.4857497E+01   0.3000000E+00
   0.4975610E+01   0.7809524E+01   0.1851925E-04  -0.4732377E+01   0.1851925E-04  -0.4732377E+01   0.3000000E+00
   0.4975610E+01   0.8785714E+01   0.4513286E-04  -0.4345507E+01   0.4513286E-04  -0.4345507E+01   0.3000000E+00
   0.4975610E+01   0.9761905E+01   0.5154270E-04  -0.4287833E+01   0.5154270E-04  -0.4287833E+01   0.3000000E+00
   0.4975610E+01   0.1073810E+02   0.4175757E-06  -0.6379265E+01   0.4175757E-06  -0.6379265E+01   0.3000000E+00
   0.4975610E+01   0.1171429E+02   0.5775909E-06  -0.6238380E+01   0.5775909E-06  -0.6238380E+01   0.3000000E+00
   0.4975610E+01   0.1269048E+02   0.1906551E-06  -0.6719752E+01   0.1906551E-06  -0.6719752E+01   0.3000000E+00
   0.4975610E+01   0.1366667E+02   0.3891057E-07  -0.7409932E+01   0.3891057E-07  -0.7409932E+01   0.3000000E+00
   0.4975610E+01   0.1464286E+02   0.1488160E-03  -0.3827350E+01   0.1488160E-03  -0.3827350E+01   0.3000000E+00
   0.4975610E+01   0.1561905E+02   0.7421829E-04  -0.4129489E+01   0.7421829E-04  -0.4129489E+01   0.3000000E+00
   0.4975610E+01   0.1659524E+02   0.6461913E-04  -0.4189639E+01   0.6461913E-04  -0.4189639E+01   0.3000000E+00
   0.4975610E+01   0.1757143E+02   0.5453870E-04  -0.4263295E+01   0.5453870E-04  -0.4263295E+01   0.3000000E+00
   0.4975610E+01   0.1854762E+02   0.4264502E-04  -0.4370132E+01   0.4264502E-04  -0.4370132E+01   0.3000000E+00
   0.4975610E+01   0.1952381E+02   0.3893566E-04  -0.4409652E+01   0.3893566E-04  -0.4409652E+01   0.3000000E+00
   0.4975610E+01   0.2050000E+02   0.3893566E-04  -0.4409652E+01   0.3893566E-04  -0.4409652E+01   0.3000000E+00
   0.7463415E+01   0.0000000E+00   0.4326788E-04  -0.4363834E+01   0.4326788E-04  -0.4363834E+01   0.3000000E+00
   0.7463415E+01   0.9761905E+00   0.2702090E-04  -0.4568300E+01   0.2702090E-04  -0.4568300E+01   0.3000000E+00
   0.7463415E+01   0.1952381E+01   0.3212102E-04  -0.4493211E+01   0.3212102E-04  -0.4493211E+01   0.3000000E+00
   0.7463415E+01   0.2928571E+01   0.2514127E-04  -0.4599613E+01   0.2514127E-04  -0.4599613E+01   0.3000000E+00
   0.7463415E+01   0.3904762E+01   0.9447126E-05  -0.5024700E+01   0.9447126E-05  -0.5024700E+01   0.3000000E+00
   0.7463415E+01   0.4880952E+01   0.2186332E-04  -0.4660284E+01   0.2186332E-04  -0.4660284E+01   0.3000000E+00
   0.7463415E+01   0.5857143E+01   0.3763786E-04  -0.4424375E+01   0.3763786E-04  -0.4424375E+01   0.3000000E+00
   0.7463415E+01   0.6833333E+01   0.3396772E-04  -0.4468934E+01   0.3396772E-04  -0.4468934E+01   0.3000000E+00
   0.7463415E+01   0.7809524E+01   0.2947996E-04  -0.4530473E+01   0.2947996E-04  -0.4530473E+01   0.3000000E+00
   0.7463415E+01   0.8785714E+01   0.2229607E-04  -0.4651772E+01   0.2229607E-04  -0.4651772E+01   0.3000000E+00
   0.7463415E+01   0.9761905E+01   0.5812004E-04  -0.4235674E+01   0.5812004E-04  -0.4235674E+01   0.3000000E+00
   0.7463415E+01   0.1073810E+02   0.6769963E-06  -0.6169414E+01   0.6769963E-06  -0.6169414E+01   0.3000000E+00
   0.7463415E+01   0.1171429E+02   0.2173841E-06  -0.6662772E+01   0.2173841E-06  -0.6662772E+01   0.3000000E+00
   0.7463415E+01   0.1269048E+02   0.5836205E-07  -0.7233869E+01   0.5836205E-07  -0.7233869E+01   0.3000000E+00
   0.7463415E+01   0.1366667E+02   0.2004673E-07  -0.7697957E+01   0.2004673E-07  -0.7697957E+01   0.3000000E+00
   0.7463415E+01   0.1464286E+02   0.2716761E-03  -0.3565949E+01   0.2716761E-03  -0.3565949E+01   0.3000000E+00
   0.7463415E+01   0.1561905E+02   0.2223851E-03  -0.3652894E+01   0.2223851E-03  -0.3652894E+01   0.3000000E+00
   0.7463415E+01   0.1659524E+02   0.6891753E-04  -0.4161670E+01   0.6891753E-04  -0.4161670E+01   0.3000000E+00
   0.7463415E+01   0.1757143E+02   0.4656786E-04  -0.4331914E+01   0.4656786E-04  -0.4331914E+01   0.3000000E+00
   0.7463415E+01   0.1854762E+02   0.2544223E-04  -0.4594445E+01   0.2544223E-04  -0.4594445E+01   0.3000000E+00
   0.7463415E+01   0.1952381E+02   0.3637969E-04  -0.4439141E+01   0.3637969E-04  -0.4439141E+01   0.3000000E+00
   0.7463415E+01   0.2050000E+02   0.3637969E-04  -0.4439141E+01   0.3637969E-04  -0.4439141E+01   0.3000000E+00
   0.9951220E+01   0.0000000E+00   0.2076379E-04  -0.4682693E+01   0.2076379E-04  -0.4682693E+01   0.3000000E+00
   0.9951220E+01   0.9761905E+00   0.1008159E-04  -0.4996471E+01   0.1008159E-04  -0.4996471E+01   0.3000000E+00
   0.9951220E+01   0.1952381E+01   0.2520924E-04  -0.4598440E+01   0.2520924E-04  -0.4598440E+01   0.3000000E+00
   0.9951220E+01   0.2928571E+01   0.2021673E-04  -0.4694289E+01   0.2021673E-04  -0.4694289E+01   0.3000000E+00
   0.9951220E+01   0.3904762E+01   0.1225104E-04  -0.4911827E+01   0.1225104E-04  -0.4911827E+01   0.3000000E+00
   0.9951220E+01   0.4880952E+01   0.1825631E-04  -0.4738587E+01   0.1825631E-04  -0.4738587E+01   0.3000000E+00
   0.9951220E+01   0.5857143E+01   0.1471711E-04  -0.4832178E+01   0.1471711E-04  -0.4832178E+01   0.3000000E+00
   0.9951220E+01   0.6833333E+01   0.2034857E-04  -0.4691466E+01   0.2034857E-04  -0.4691466E+01   0.3000000E+00
   0.9951220E+01   0.7809524E+01   0.1705273E-04  -0.4768206E+01   0.1705273E-04  -0.4768206E+01   0.3000000E+00
   0.9951220E+01   0.8785714E+01   0.1982632E-04  -0.4702758E+01   0.1982632E-04  -0.4702758E+01   0.3000000E+00
   0.9951220E+01   0.9761905E+01   0.3027162E-04  -0.4518964E+01   0.3027162E-04  -0.4518964E+01   0.3000000E+00
   0.9951220E+01   0.1073810E+02   0.4676714E-06  -0.6330059E+01   0.4676714E-06  -0.6330059E+01   0.3000000E+00
   0.9951220E+01   0.1171429E+02   0.2114241E-06  -0.6674846E+01   0.2114241E-06  -0.6674846E+01   0.3000000E+00
   0.9951220E+01   0.1269048E+02   0.2496478E-07  -0.7602672E+01   0.2496478E-07  -0.7602672E+01   0.3000000E+00
   0.9951220E+01   0.1366667E+02   0.9691661E-08  -0.8013602E+01   0.9691661E-08  -0.8013602E+01   0.3000000E+00
   0.9951220E+01   0.1464286E+02   0.1307681E-02  -0.2883498E+01   0.1307681E-02  -0.2883498E+01   0.3000000E+00
   0.9951220E+01   0.1561905E+02   0.3582427E-03  -0.3445823E+01   0.3582427E-03  -0.3445823E+01   0.3000000E+00
   0.9951220E+01   0.1659524E+02   0.7205362E-04  -0.4142344E+01   0.7205362E-04  -0.4142344E+01   0.3000000E+00
   0.9951220E+01   0.1757143E+02   0.4282879E-04  -0.4368264E+01   0.4282879E-04  -0.4368264E+01   0.3000000E+00
   0.9951220E+01   0.1854762E+02   0.3462620E-04  -0.4460595E+01   0.3462620E-04  -0.4460595E+01   0.3000000E+00
   0.9951220E+01   0.1952381E+02   0.2860011E-04  -0.4543632E+01   0.2860011E-04  -0.4543632E+01   0.3000000E+00
   0.9951220E+01   0.2050000E+02   0.2860011E-04  -0.4543632E+01   0.2860011E-04  -0.4543632E+01   0.3000000E+00
   0.1243902E+02   0.0000000E+00   0.3970236E-04  -0.4401184E+01   0.3970236E-04  -0.4401184E+01   0.3000000E+00
   0.1243902E+02   0.9761905E+00   0.1734337E-04  -0.4760866E+01   0.1734337E-04  -0.4760866E+01   0.3000000E+00
   0.1243902E+02   0.1952381E+01   0.1648434E-04  -0.4782929E+01   0.1648434E-04  -0.4782929E+01   0.3000000E+00
   0.1243902E+02   0.2928571E+01   0.1905845E-04  -0.4719912E+01   0.1905845E-04  -0.4719912E+01   0.3000000E+00
   0.1243902E+02   0.3904762E+01   0.8530181E-05  -0.5069042E+01   0.8530181E-05  -0.5069042E+01   0.3000000E+00
   0.1243902E+02   0.4880952E+01   0.1246981E-04  -0.4904140E+01   0.1246981E-04  -0.4904140E+01   0.3000000E+00
   0.1243902E+02   0.5857143E+01   0.1724825E-04  -0.4763255E+01   0.1724825E-04  -0.4763255E+01   0.3000000E+00
   0.1243902E+02   0.6833333E+01   0.2200810E-04  -0.4657417E+01   0.2200810E-04  -0.4657417E+01   0.3000000E+00
   0.1243902E+02   0.7809524E+01   0.1511686E-04  -0.4820538E+01   0.1511686E-04  -0.4820538E+01   0.3000000E+00
   0.1243902E+02   0.8785714E+01   0.1278932E-04  -0.4893152E+01   0.1278932E-04  -0.4893152E+01   0.3000000E+00
   0.1243902E+02   0.9761905E+01   0.1813802E-04  -0.4741410E+01   0.1813802E-04  -0.4741410E+01   0.3000000E+00
   0.1243902E+02   0.1073810E+02   0.4922397E-06  -0.6307823E+01   0.4922397E-06  -0.6307823E+01   0.3000000E+00
   0.1243902E+02   0.1171429E+02   0.1220909E-06  -0.6913317E+01   0.1220909E-06  -0.6913317E+01   0.3000000E+00
   0.1243902E+02   0.1269048E+02   0.4193689E-07  -0.7377404E+01   0.4193689E-07  -0.7377404E+01   0.3000000E+00
   0.1243902E+02   0.1366667E+02   0.1366948E-07  -0.7864248E+01   0.1366948E-07  -0.7864248E+01   0.3000000E+00
   0.1243902E+02   0.1464286E+02   0.7948954E-03  -0.3099690E+01   0.7948954E-03  -0.3099690E+01   0.3000000E+00
   0.1243902E+02   0.1561905E+02   0.3511139E-03  -0.3454552E+01   0.3511139E-03  -0.3454552E+01   0.3000000E+00
   0.1243902E+02   0.1659524E+02   0.1332745E-03  -0.3875253E+01   0.1332745E-03  -0.3875253E+01   0.3000000E+00
   0.1243902E+02   0.1757143E+02   0.5312303E-04  -0.4274717E+01   0.5312303E-04  -0.4274717E+01   0.3000000E+00
   0.1243902E+02   0.1854762E+02   0.4317711E-04  -0.4364746E+01   0.4317711E-04  -0.4364746E+01   0.3000000E+00
   0.1243902E+02   0.1952381E+02   0.3395413E-04  -0.4469107E+01   0.3395413E-04  -0.4469107E+01   0.3000000E+00
   0.1243902E+02   0.2050000E+02   0.3395413E-04  -0.4469107E+01   0.3395413E-04  -0.4469107E+01   0.3000000E+00
   0.1492683E+02   0.0000000E+00   0.1914852E-03  -0.3717865E+01   0.1914852E-03  -0.3717865E+01   0.3000000E+00
   0.1492683E+02   0.9761905E+00   0.1751444E-03  -0.3756604E+01   0.1751444E-03  -0.3756604E+01   0.3000000E+00
   0.1492683E+02   0.1952381E+01   0.5987210E-04  -0.4222776E+01   0.5987210E-04  -0.4222776E+01   0.3000000E+00
   0.1492683E+02   0.2928571E+01   0.4027821E-04  -0.4394930E+01   0.4027821E-04  -0.4394930E+01   0.3000000E+00
   0.1492683E+02   0.3904762E+01   0.1294890E-04  -0.4887767E+01   0.1294890E-04  -0.4887767E+01   0.3000000E+00
   0.1492683E+02   0.4880952E+01   0.8525064E-05  -0.5069302E+01   0.8525064E-05  -0.5069302E+01   0.3000000E+00
   0.1492683E+02   0.5857143E+01   0.1866613E-04  -0.4728946E+01   0.1866613E-04  -0.4728946E+01   0.3000000E+00
   0.1492683E+02   0.6833333E+01   0.1580791E-04  -0.4801125E+01   0.1580791E-04  -0.4801125E+01   0.3000000E+00
   0.1492683E+02   0.7809524E+01   0.1821619E-04  -0.4739543E+01   0.1821619E-04  -0.4739543E+01   0.3000000E+00
   0.1492683E+02   0.8785714E+01   0.1336061E-04  -0.4874174E+01   0.1336061E-04  -0.4874174E+01   0.3000000E+00
   0.1492683E+02   0.9761905E+01   0.2781041E-04  -0.4555793E+01   0.2781041E-04  -0.4555793E+01   0.3000000E+00
   0.1492683E+02   0.1073810E+02   0.2140406E-06  -0.6669504E+01   0.2140406E-06  -0.6669504E+01   0.3000000E+00
   0.1492683E+02   0.1171429E+02   0.2338935E-06  -0.6630982E+01   0.2338935E-06  -0.6630982E+01   0.3000000E+00
   0.1492683E+02   0.1269048E+02   0.2819602E-06  -0.6549812E+01   0.2819602E-06  -0.6549812E+01   0.3000000E+00
   0.1492683E+02   0.1366667E+02   0.5399362E-07  -0.7267658E+01   0.5399362E-07  -0.7267658E+01   0.3000000E+00
   0.1492683E+02   0.1464286E+02   0.1673037E-03  -0.3776495E+01   0.1673037E-03  -0.3776495E+01   0.3000000E+00
   0.1492683E+02   0.1561905E+02   0.2051642E-03  -0.3687898E+01   0.2051642E-03  -0.3687898E+01   0.3000000E+00
   0.1492683E+02   0.1659524E+02   0.5406627E-04  -0.4267074E+01   0.5406627E-04  -0.4267074E+01   0.3000000E+00
   0.1492683E+02   0.1757143E+02   0.3251529E-04  -0.4487912E+01   0.3251529E-04  -0.4487912E+01   0.3000000E+00
   0.1492683E+02   0.1854762E+02   0.3910736E-04  -0.4407742E+01   0.3910736E-04  -0.4407742E+01   0.3000000E+00
   0.1492683E+02   0.1952381E+02   0.3477889E-04  -0.4458684E+01   0.3477889E-04  -0.4458684E+01   0.3000000E+00
   0.1492683E+02   0.2050000E+02   0.3477889E-04  -0.4458684E+01   0.3477889E-04  -0.4458684E+01   0.3000000E+00
   0.1741463E+02   0.0000000E+00   0.2906764E-03  -0.3536590E+01   0.2906764E-03  -0.3536590E+01   0.3000000E+00
   0.1741463E+02   0.9761905E+00   0.2648624E-03  -0.3576980E+01   0.2648624E-03  -0.3576980E+01   0.3000000E+00
   0.1741463E+02   0.1952381E+01   0.9521244E-04  -0.4021306E+01   0.9521244E-04  -0.4021306E+01   0.3000000E+00
   0.1741463E+02   0.2928571E+01   0.4043964E-04  -0.4393193E+01   0.4043964E-04  -0.4393193E+01   0.3000000E+00
   0.1741463E+02   0.3904762E+01   0.2679755E-04  -0.4571905E+01   0.2679755E-04  -0.4571905E+01   0.3000000E+00
   0.1741463E+02   0.4880952E+01   0.3585599E-04  -0.4445438E+01   0.3585599E-04  -0.4445438E+01   0.3000000E+00
   0.1741463E+02   0.5857143E+01   0.2713191E-04  -0.4566520E+01   0.2713191E-04  -0.4566520E+01   0.3000000E+00
   0.1741463E+02   0.6833333E+01   0.2542189E-04  -0.4594792E+01   0.2542189E-04  -0.4594792E+01   0.3000000E+00
   0.1741463E+02   0.7809524E+01   0.1518048E-04  -0.4818714E+01   0.1518048E-04  -0.4818714E+01   0.3000000E+00
   0.1741463E+02   0.8785714E+01   0.1815073E-04  -0.4741106E+01   0.1815073E-04  -0.4741106E+01   0.3000000E+00
   0.1741463E+02   0.9761905E+01   0.3927195E-04  -0.4405918E+01   0.3927195E-04  -0.4405918E+01   0.3000000E+00
   0.1741463E+02   0.1073810E+02   0.5729886E-06  -0.6241854E+01   0.5729886E-06  -0.6241854E+01   0.3000000E+00
   0.1741463E+02   0.1171429E+02   0.1958533E-06  -0.6708069E+01   0.1958533E-06  -0.6708069E+01   0.3000000E+00
   0.1741463E+02   0.1269048E+02   0.2294685E-06  -0.6639277E+01   0.2294685E-06  -0.6639277E+01   0.3000000E+00
   0.1741463E+02   0.1366667E+02   0.6955834E-07  -0.7157651E+01   0.6955834E-07  -0.7157651E+01   0.3000000E+00
   0.1741463E+02   0.1464286E+02   0.3532923E-04  -0.4451866E+01   0.3532923E-04  -0.4451866E+01   0.3000000E+00
   0.1741463E+02   0.1561905E+02   0.3577004E-04  -0.4446481E+01   0.3577004E-04  -0.4446481E+01   0.3000000E+00
   0.1741463E+02   0.1659524E+02   0.4239840E-04  -0.4372651E+01   0.4239840E-04  -0.4372651E+01   0.3000000E+00
   0.1741463E+02   0.1757143E+02   0.4721023E-04  -0.4325964E+01   0.4721023E-04  -0.4325964E+01   0.3000000E+00
   0.1741463E+02   0.1854762E+02   0.5025000E-04  -0.4298864E+01   0.5025000E-04  -0.4298864E+01   0.3000000E+00
   0.1741463E+02   0.1952381E+02   0.3414139E-04  -0.4466719E+01   0.3414139E-04  -0.4466719E+01   0.3000000E+00
   0.1741463E+02   0.2050000E+02   0.3414139E-04  -0.4466719E+01   0.3414139E-04  -0.4466719E+01   0.3000000E+00
   0.1990244E+02   0.0000000E+00   0.9240772E-04  -0.4034292E+01   0.9240772E-04  -0.4034292E+01   0.3000000E+00
   0.1990244E+02   0.9761905E+00   0.6747860E-04  -0.4170834E+01   0.6747860E-04  -0.4170834E+01   0.3000000E+00
   0.1990244E+02   0.1952381E+01   0.6554983E-04  -0.4183428E+01   0.6554983E-04  -0.4183428E+01   0.3000000E+00
   0.1990244E+02   0.2928571E+01   0.3868727E-04  -0.4412432E+01   0.3868727E-04  -0.4412432E+01   0.3000000E+00
   0.1990244E+02   0.3904762E+01   0.2402537E-04  -0.4619330E+01   0.2402537E-04  -0.4619330E+01   0.3000000E+00
   0.1990244E+02   0.4880952E+01   0.1337799E-04  -0.4873609E+01   0.1337799E-04  -0.4873609E+01   0.3000000E+00
   0.1990244E+02   0.5857143E+01   0.1286886E-04  -0.4890460E+01   0.1286886E-04  -0.4890460E+01   0.3000000E+00
   0.1990244E+02   0.6833333E+01   0.3213708E-04  -0.4492994E+01   0.3213708E-04  -0.4492994E+01   0.3000000E+00
   0.1990244E+02   0.7809524E+01   0.3746513E-04  -0.4426373E+01   0.3746513E-04  -0.4426373E+01   0.3000000E+00
   0.1990244E+02   0.8785714E+01   0.6096565E-04  -0.4214915E+01   0.6096565E-04  -0.4214915E+01   0.3000000E+00
   0.1990244E+02   0.9761905E+01   0.5266286E-04  -0.4278496E+01   0.5266286E-04  -0.4278496E+01   0.3000000E+00
   0.1990244E+02   0.1073810E+02   0.2179064E-06  -0.6661730E+01   0.2179064E-06  -0.6661730E+01   0.3000000E+00
   0.1990244E+02   0.1171429E+02   0.1648220E-06  -0.6782985E+01   0.1648220E-06  -0.6782985E+01   0.3000000E+00
   0.1990244E+02   0.1269048E+02   0.1671457E-06  -0.6776905E+01   0.1671457E-06  -0.6776905E+01   0.3000000E+00
   0.1990244E+02   0.1366667E+02   0.4706670E-07  -0.7327286E+01   0.4706670E-07  -0.7327286E+01   0.3000000E+00
   0.1990244E+02   0.1464286E+02   0.3969442E-04  -0.4401271E+01   0.3969442E-04  -0.4401271E+01   0.3000000E+00
   0.1990244E+02   0.1561905E+02   0.2937696E-04  -0.4531993E+01   0.2937696E-04  -0.4531993E+01   0.3000000E+00
   0.1990244E+02   0.1659524E+02   0.2780485E-04  -0.4555879E+01   0.2780485E-04  -0.4555879E+01   0.3000000E+00
   0.1990244E+02   0.1757143E+02   0.4364159E-04  -0.4360099E+01   0.4364159E-04  -0.4360099E+01   0.3000000E+00
   0.1990244E+02   0.1854762E+02   0.3320866E-04  -0.4478749E+01   0.3320866E-04  -0.4478749E+01   0.3000000E+00
   0.1990244E+02   0.1952381E+02   0.6718907E-04  -0.4172701E+01   0.6718907E-04  -0.4172701E+01   0.3000000E+00
   0.1990244E+02   0.2050000E+02   0.6718907E-04  -0.4172701E+01   0.6718907E-04  -0.4172701E+01   0.3000000E+00
   0.2239024E+02   0.0000000E+00   0.5587464E-04  -0.4252785E+01   0.5587464E-04  -0.4252785E+01   0.3000000E+00
   0.2239024E+02   0.9761905E+00   0.4091966E-04  -0.4388068E+01   0.4091966E-04  -0.4388068E+01   0.3000000E+00
   0.2239024E+02   0.1952381E+01   0.1959179E-04  -0.4707926E+01   0.1959179E-04  -0.4707926E+01   0.3000000E+00
   0.2239024E+02   0.2928571E+01   0.9945404E-05  -0.5002378E+01   0.9945404E-05  -0.5002378E+01   0.3000000E+00
   0.2239024E+02   0.3904762E+01   0.1350838E-04  -0.4869397E+01   0.1350838E-04  -0.4869397E+01   0.3000000E+00
   0.2239024E+02   0.4880952E+01   0.1602277E-04  -0.4795263E+01   0.1602277E-04  -0.4795263E+01   0.3000000E+00
   0.2239024E+02   0.5857143E+01   0.1355981E-04  -0.4867746E+01   0.1355981E-04  -0.4867746E+01   0.3000000E+00
   0.2239024E+02   0.6833333E+01   0.1560062E-04  -0.4806858E+01   0.1560062E-04  -0.4806858E+01   0.3000000E+00
   0.2239024E+02   0.7809524E+01   0.3092332E-04  -0.4509714E+01   0.3092332E-04  -0.4509714E+01   0.3000000E+00
   0.2239024E+02   0.8785714E+01   0.4640051E-04  -0.4333477E+01   0.4640051E-04  -0.4333477E+01   0.3000000E+00
   0.2239024E+02   0.9761905E+01   0.4374645E-04  -0.4359057E+01   0.4374645E-04  -0.4359057E+01   0.3000000E+00
   0.2239024E+02   0.1073810E+02   0.1383609E-06  -0.6858986E+01   0.1383609E-06  -0.6858986E+01   0.3000000E+00
   0.2239024E+02   0.1171429E+02   0.2007310E-06  -0.6697385E+01   0.2007310E-06  -0.6697385E+01   0.3000000E+00
   0.2239024E+02   0.1269048E+02   0.1183878E-06  -0.6926693E+01   0.1183878E-06  -0.6926693E+01   0.3000000E+00
   0.2239024E+02   0.1366667E+02   0.4742103E-07  -0.7324029E+01   0.4742103E-07  -0.7324029E+01   0.3000000E+00
   0.2239024E+02   0.1464286E+02   0.3330510E-04  -0.4477489E+01   0.3330510E-04  -0.4477489E+01   0.3000000E+00
   0.2239024E+02   0.1561905E+02   0.3158589E-04  -0.4500507E+01   0.3158589E-04  -0.4500507E+01   0.3000000E+00
   0.2239024E+02   0.1659524E+02   0.2541935E-04  -0.4594836E+01   0.2541935E-04  -0.4594836E+01   0.3000000E+00
   0.2239024E+02   0.1757143E+02   0.2851444E-04  -0.4544935E+01   0.2851444E-04  -0.4544935E+01   0.3000000E+00
   0.2239024E+02   0.1854762E+02   0.4227562E-04  -0.4373910E+01   0.4227562E-04  -0.4373910E+01   0.3000000E+00
   0.2239024E+02   0.1952381E+02   0.1122480E-03  -0.3949821E+01   0.1122480E-03  -0.3949821E+01   0.3000000E+00
   0.2239024E+02   0.2050000E+02   0.1122480E-03  -0.3949821E+01   0.1122480E-03  -0.3949821E+01   0.3000000E+00
   0.2487805E+02   0.0000000E+00   0.3942541E-04  -0.4404224E+01   0.3942541E-04  -0.4404224E+01   0.3000000E+00
   0.2487805E+02   0.9761905E+00   0.2392947E-04  -0.4621067E+01   0.2392947E-04  -0.4621067E+01   0.3000000E+00
   0.2487805E+02   0.1952381E+01   0.6753835E-05  -0.5170450E+01   0.6753835E-05  -0.5170450E+01   0.3000000E+00
   0.2487805E+02   0.2928571E+01   0.7898008E-05  -0.5102482E+01   0.7898008E-05  -0.5102482E+01   0.3000000E+00
   0.2487805E+02   0.3904762E+01   0.1894634E-04  -0.4722475E+01   0.1894634E-04  -0.4722475E+01   0.3000000E+00
   0.2487805E+02   0.4880952E+01   0.2437628E-04  -0.4613033E+01   0.2437628E-04  -0.4613033E+01   0.3000000E+00
   0.2487805E+02   0.5857143E+01   0.2991352E-04  -0.4524132E+01   0.2991352E-04  -0.4524132E+01   0.3000000E+00
   0.2487805E+02   0.6833333E+01   0.3897851E-04  -0.4409175E+01   0.3897851E-04  -0.4409175E+01   0.3000000E+00
   0.2487805E+02   0.7809524E+01   0.5354436E-04  -0.4271286E+01   0.5354436E-04  -0.4271286E+01   0.3000000E+00
   0.2487805E+02   0.8785714E+01   0.8094020E-04  -0.4091836E+01   0.8094020E-04  -0.4091836E+01   0.3000000E+00
   0.2487805E+02   0.9761905E+01   0.2844040E-04  -0.4546064E+01   0.2844040E-04  -0.4546064E+01   0.3000000E+00
   0.2487805E+02   0.1073810E+02   0.2746413E-06  -0.6561234E+01   0.2746413E-06  -0.6561234E+01   0.3000000E+00
   0.2487805E+02   0.1171429E+02   0.1142474E-06  -0.6942154E+01   0.1142474E-06  -0.6942154E+01   0.3000000E+00
   0.2487805E+02   0.1269048E+02   0.1103620E-06  -0.6957180E+01   0.1103620E-06  -0.6957180E+01   0.3000000E+00
   0.2487805E+02   0.1366667E+02   0.1575694E-06  -0.6802528E+01   0.1575694E-06  -0.6802528E+01   0.3000000E+00
   0.2487805E+02   0.1464286E+02   0.3055446E-04  -0.4514925E+01   0.3055446E-04  -0.4514925E+01   0.3000000E+00
   0.2487805E+02   0.1561905E+02   0.3055751E-04  -0.4514882E+01   0.3055751E-04  -0.4514882E+01   0.3000000E+00
   0.2487805E+02   0.1659524E+02   0.3098213E-04  -0.4508889E+01   0.3098213E-04  -0.4508889E+01   0.3000000E+00
   0.2487805E+02   0.1757143E+02   0.4497067E-04  -0.4347071E+01   0.4497067E-04  -0.4347071E+01   0.3000000E+00
   0.2487805E+02   0.1854762E+02   0.5587464E-04  -0.4252785E+01   0.5587464E-04  -0.4252785E+01   0.3000000E+00
   0.2487805E+02   0.1952381E+02   0.9646792E-04  -0.4015617E+01   0.9646792E-04  -0.4015617E+01   0.3000000E+00
   0.2487805E+02   0.2050000E+02   0.9646792E-04  -0.4015617E+01   0.9646792E-04  -0.4015617E+01   0.3000000E+00
   0.2736585E+02   0.0000000E+00   0.7056333E-04  -0.4151421E+01   0.7056333E-04  -0.4151421E+01   0.3000000E+00
   0.2736585E+02   0.9761905E+00   0.3186189E-04  -0.4496728E+01   0.3186189E-04  -0.4496728E+01   0.3000000E+00
   0.2736585E+02   0.1952381E+01   0.3214030E-04  -0.4492950E+01   0.3214030E-04  -0.4492950E+01   0.3000000E+00
   0.2736585E+02   0.2928571E+01   0.4342393E-04  -0.4362271E+01   0.4342393E-04  -0.4362271E+01   0.3000000E+00
   0.2736585E+02   0.3904762E+01   0.4585621E-04  -0.4338602E+01   0.4585621E-04  -0.4338602E+01   0.3000000E+00
   0.2736585E+02   0.4880952E+01   0.2580093E-04  -0.4588365E+01   0.2580093E-04  -0.4588365E+01   0.3000000E+00
   0.2736585E+02   0.5857143E+01   0.6504703E-04  -0.4186773E+01   0.6504703E-04  -0.4186773E+01   0.3000000E+00
   0.2736585E+02   0.6833333E+01   0.6581255E-04  -0.4181691E+01   0.6581255E-04  -0.4181691E+01   0.3000000E+00
   0.2736585E+02   0.7809524E+01   0.6681386E-04  -0.4175133E+01   0.6681386E-04  -0.4175133E+01   0.3000000E+00
   0.2736585E+02   0.8785714E+01   0.6470966E-04  -0.4189031E+01   0.6470966E-04  -0.4189031E+01   0.3000000E+00
   0.2736585E+02   0.9761905E+01   0.3945302E-04  -0.4403920E+01   0.3945302E-04  -0.4403920E+01   0.3000000E+00
   0.2736585E+02   0.1073810E+02   0.3738860E-07  -0.7427261E+01   0.3738860E-07  -0.7427261E+01   0.3000000E+00
   0.2736585E+02   0.1171429E+02   0.6478446E-07  -0.7188529E+01   0.6478446E-07  -0.7188529E+01   0.3000000E+00
   0.2736585E+02   0.1269048E+02   0.1496001E-06  -0.6825068E+01   0.1496001E-06  -0.6825068E+01   0.3000000E+00
   0.2736585E+02   0.1366667E+02   0.2075072E-06  -0.6682967E+01   0.2075072E-06  -0.6682967E+01   0.3000000E+00
   0.2736585E+02   0.1464286E+02   0.1000826E-04  -0.4999642E+01   0.1000826E-04  -0.4999642E+01   0.3000000E+00
   0.2736585E+02   0.1561905E+02   0.6962305E-05  -0.5157247E+01   0.6962305E-05  -0.5157247E+01   0.3000000E+00
   0.2736585E+02   0.1659524E+02   0.3000340E-04  -0.4522830E+01   0.3000340E-04  -0.4522830E+01   0.3000000E+00
   0.2736585E+02   0.1757143E+02   0.9367305E-04  -0.4028385E+01   0.9367305E-04  -0.4028385E+01   0.3000000E+00
   0.2736585E+02   0.1854762E+02   0.8447964E-04  -0.4073248E+01   0.8447964E-04  -0.4073248E+01   0.3000000E+00
   0.2736585E+02   0.1952381E+02   0.1336481E-03  -0.3874037E+01   0.1336481E-03  -0.3874037E+01   0.3000000E+00
   0.2736585E+02   0.2050000E+02   0.1336481E-03  -0.3874037E+01   0.1336481E-03  -0.3874037E+01   0.3000000E+00