title="2d vectors yz, t=    0.150E+03"
variables="y","z","vy","vz"
zone i=    21, j=    41, T="   0.150E+03"
zone i=    21, j=    41, T="   0.300E+03"
zone i=    21, j=    41, T="   0.450E+03"
zone i=    21, j=    41, T="   0.600E+03"
zone i=    21, j=    41, T="   0.750E+03"
zone i=    21, j=    41, T="   0.900E+03"
zone i=    21, j=    41, T="   0.105E+04"
zone i=    21, j=    41, T="   0.120E+04"
zone i=    21, j=    41, T="   0.135E+04"
zone i=    21, j=    41, T="   0.150E+04"
zone i=    21, j=    41, T="   0.165E+04"
zone i=    21, j=    41, T="   0.180E+04"
zone i=    21, j=    41, T="   0.195E+04"
zone i=    21, j=    41, T="   0.210E+04"
zone i=    21, j=    41, T="   0.225E+04"
zone i=    21, j=    41, T="   0.240E+04"
zone i=    21, j=    41, T="   0.255E+04"
zone i=    21, j=    41, T="   0.270E+04"
zone i=    21, j=    41, T="   0.285E+04"
zone i=    21, j=    41, T="   0.300E+04"
zone i=    21, j=    41, T="   0.315E+04"
zone i=    21, j=    41, T="   0.330E+04"
zone i=    21, j=    41, T="   0.345E+04"
zone i=    21, j=    41, T="   0.360E+04"
zone i=    21, j=    41, T="   0.375E+04"
zone i=    21, j=    41, T="   0.390E+04"
zone i=    21, j=    41, T="   0.405E+04"
zone i=    21, j=    41, T="   0.420E+04"
zone i=    21, j=    41, T="   0.435E+04"
zone i=    21, j=    41, T="   0.450E+04"
zone i=    21, j=    41, T="   0.465E+04"
zone i=    21, j=    41, T="   0.480E+04"
zone i=    21, j=    41, T="   0.495E+04"
zone i=    21, j=    41, T="   0.510E+04"
zone i=    21, j=    41, T="   0.525E+04"
zone i=    21, j=    41, T="   0.540E+04"
zone i=    21, j=    41, T="   0.555E+04"
zone i=    21, j=    41, T="   0.570E+04"
zone i=    21, j=    41, T="   0.585E+04"
zone i=    21, j=    41, T="   0.600E+04"
zone i=    21, j=    41, T="   0.615E+04"
zone i=    21, j=    41, T="   0.630E+04"
zone i=    21, j=    41, T="   0.645E+04"
zone i=    21, j=    41, T="   0.660E+04"
zone i=    21, j=    41, T="   0.675E+04"
zone i=    21, j=    41, T="   0.690E+04"
zone i=    21, j=    41, T="   0.705E+04"
zone i=    21, j=    41, T="   0.720E+04"
zone i=    21, j=    41, T="   0.735E+04"
zone i=    21, j=    41, T="   0.750E+04"
zone i=    21, j=    41, T="   0.765E+04"
zone i=    21, j=    41, T="   0.780E+04"
zone i=    21, j=    41, T="   0.795E+04"
zone i=    21, j=    41, T="   0.810E+04"
zone i=    21, j=    41, T="   0.825E+04"
zone i=    21, j=    41, T="   0.840E+04"
zone i=    21, j=    41, T="   0.855E+04"
zone i=    21, j=    41, T="   0.870E+04"
zone i=    21, j=    41, T="   0.885E+04"
zone i=    21, j=    41, T="   0.900E+04"
zone i=    21, j=    41, T="   0.915E+04"
zone i=    21, j=    41, T="   0.930E+04"
zone i=    21, j=    41, T="   0.945E+04"
zone i=    21, j=    41, T="   0.960E+04"
zone i=    21, j=    41, T="   0.975E+04"
zone i=    21, j=    41, T="   0.990E+04"
zone i=    21, j=    41, T="   0.100E+05"
zone i=    21, j=    41, T="   0.102E+05"
zone i=    21, j=    41, T="   0.104E+05"
zone i=    21, j=    41, T="   0.105E+05"
zone i=    21, j=    41, T="   0.106E+05"
zone i=    21, j=    41, T="   0.108E+05"
zone i=    21, j=    41, T="   0.110E+05"
zone i=    21, j=    41, T="   0.111E+05"
zone i=    21, j=    41, T="   0.112E+05"
