title="2d vectors xz, t=    0.150E+03"
variables="x","z","vx","vz"
zone i=    21, j=    41, T="   0.150E+03"
  0.124390E+01  0.488060E+00  0.489504E-06  0.104310E-07
  0.124390E+01  0.146418E+01  0.288742E-06  0.363252E-07
  0.124390E+01  0.244030E+01  0.654270E-07  0.360076E-08
  0.124390E+01  0.341642E+01  0.118035E-06 -0.201460E-07
  0.124390E+01  0.439254E+01  0.206236E-06 -0.215389E-07
  0.124390E+01  0.536866E+01  0.804962E-07  0.364464E-08
  0.124390E+01  0.634479E+01  0.886287E-07  0.108114E-07
  0.124390E+01  0.732091E+01  0.525159E-07  0.736790E-08
  0.124390E+01  0.829703E+01  0.956601E-07  0.194432E-08
  0.124390E+01  0.927315E+01  0.229981E-06 -0.746048E-08
  0.124390E+01  0.102493E+02  0.665253E-06 -0.836617E-08
  0.124390E+01  0.112254E+02  0.602913E-09  0.273025E-09
  0.124390E+01  0.122015E+02  0.562169E-09  0.196148E-09
  0.124390E+01  0.131776E+02  0.395812E-09  0.737865E-10
  0.124390E+01  0.141538E+02  0.272664E-09  0.567750E-10
  0.124390E+01  0.151299E+02  0.547523E-09 -0.100685E-09
  0.124390E+01  0.161060E+02  0.132925E-05 -0.145341E-06
  0.124390E+01  0.170821E+02  0.985122E-06 -0.373427E-07
  0.124390E+01  0.180582E+02  0.853417E-06 -0.193042E-07
  0.124390E+01  0.190344E+02  0.422053E-06 -0.160444E-07
  0.124390E+01  0.200105E+02  0.284057E-06  0.512072E-07
  0.373171E+01  0.487932E+00  0.538487E-06  0.329824E-08
  0.373171E+01  0.146380E+01  0.198210E-06  0.846485E-08
  0.373171E+01  0.243966E+01  0.282130E-06  0.165361E-07
  0.373171E+01  0.341553E+01  0.204674E-06 -0.950576E-08
  0.373171E+01  0.439139E+01  0.985247E-07 -0.198740E-08
  0.373171E+01  0.536726E+01  0.660117E-07  0.463578E-08
  0.373171E+01  0.634312E+01  0.580654E-07  0.187209E-08
  0.373171E+01  0.731899E+01  0.826654E-07 -0.373105E-08
  0.373171E+01  0.829485E+01  0.112997E-06 -0.868068E-08
  0.373171E+01  0.927071E+01  0.313047E-06 -0.284110E-07
  0.373171E+01  0.102466E+02  0.534424E-06 -0.241466E-07
  0.373171E+01  0.112224E+02  0.273857E-09  0.341442E-09
  0.373171E+01  0.121983E+02  0.662475E-09  0.538457E-09
  0.373171E+01  0.131742E+02  0.754976E-09  0.570059E-09
  0.373171E+01  0.141500E+02  0.407534E-09  0.591490E-09
  0.373171E+01  0.151259E+02  0.856507E-06 -0.214547E-06
  0.373171E+01  0.161018E+02  0.760124E-06 -0.205604E-06
  0.373171E+01  0.170776E+02  0.907919E-06 -0.149976E-06
  0.373171E+01  0.180535E+02  0.836507E-06 -0.799529E-07
  0.373171E+01  0.190294E+02  0.404250E-06 -0.193022E-07
  0.373171E+01  0.200052E+02  0.288812E-06 -0.275584E-07
  0.621951E+01  0.487739E+00  0.546354E-06  0.557548E-08
  0.621951E+01  0.146322E+01  0.208485E-06  0.560294E-08
  0.621951E+01  0.243870E+01  0.186904E-06  0.695254E-08
  0.621951E+01  0.341418E+01  0.285199E-06  0.275993E-07
  0.621951E+01  0.438965E+01  0.125987E-06  0.341229E-07
  0.621951E+01  0.536513E+01  0.592076E-07  0.122132E-07
  0.621951E+01  0.634061E+01  0.140381E-06 -0.680081E-08
  0.621951E+01  0.731609E+01  0.102746E-06 -0.265799E-07
  0.621951E+01  0.829157E+01  0.130641E-06 -0.386779E-07
  0.621951E+01  0.926705E+01  0.299106E-06 -0.325654E-07
  0.621951E+01  0.102425E+02  0.345746E-06 -0.223177E-08
  0.621951E+01  0.112180E+02  0.221039E-08  0.198917E-08
  0.621951E+01  0.121935E+02  0.194260E-08  0.137317E-08
  0.621951E+01  0.131690E+02  0.710403E-09  0.113761E-08
  0.621951E+01  0.141444E+02  0.274846E-09  0.911128E-09
  0.621951E+01  0.151199E+02  0.145066E-05 -0.620636E-07
  0.621951E+01  0.160954E+02  0.766317E-06 -0.178549E-06
  0.621951E+01  0.170709E+02  0.680953E-06 -0.216902E-06
  0.621951E+01  0.180464E+02  0.536125E-06 -0.141885E-06
  0.621951E+01  0.190218E+02  0.377481E-06 -0.652090E-07
  0.621951E+01  0.199973E+02  0.318161E-06 -0.166022E-07
  0.870732E+01  0.487594E+00  0.360251E-06  0.995384E-08
  0.870732E+01  0.146278E+01  0.227818E-06  0.322730E-07
  0.870732E+01  0.243797E+01  0.279725E-06  0.237342E-07
  0.870732E+01  0.341316E+01  0.225516E-06  0.791412E-08
  0.870732E+01  0.438835E+01  0.793638E-07  0.101121E-07
  0.870732E+01  0.536354E+01  0.151289E-06 -0.611476E-10
  0.870732E+01  0.633873E+01  0.220173E-06 -0.260530E-07
  0.870732E+01  0.731392E+01  0.197029E-06 -0.446004E-07
  0.870732E+01  0.828910E+01  0.188545E-06 -0.606072E-07
  0.870732E+01  0.926429E+01  0.145764E-06 -0.330542E-07
  0.870732E+01  0.102395E+02  0.353012E-06 -0.151080E-07
  0.870732E+01  0.112147E+02  0.404847E-08  0.767105E-09
  0.870732E+01  0.121899E+02  0.139499E-08  0.478419E-09
  0.870732E+01  0.131650E+02  0.424865E-09  0.541168E-09
  0.870732E+01  0.141402E+02  0.145885E-09  0.573890E-09
  0.870732E+01  0.151154E+02  0.181780E-05 -0.728836E-07
  0.870732E+01  0.160906E+02  0.146875E-05 -0.289873E-06
  0.870732E+01  0.170658E+02  0.475398E-06 -0.218386E-06
  0.870732E+01  0.180410E+02  0.355754E-06 -0.125980E-06
  0.870732E+01  0.190162E+02  0.209975E-06 -0.599857E-07
  0.870732E+01  0.199914E+02  0.304742E-06 -0.370477E-07
  0.111951E+02  0.487457E+00  0.341162E-06 -0.791379E-08
  0.111951E+02  0.146237E+01  0.150924E-06 -0.166628E-07
  0.111951E+02  0.243729E+01  0.326712E-06 -0.210822E-07
  0.111951E+02  0.341220E+01  0.233779E-06 -0.203402E-07
  0.111951E+02  0.438711E+01  0.127028E-06 -0.258541E-07
  0.111951E+02  0.536203E+01  0.183556E-06 -0.256325E-07
  0.111951E+02  0.633694E+01  0.152268E-06 -0.187924E-07
  0.111951E+02  0.731186E+01  0.207510E-06 -0.251067E-07
  0.111951E+02  0.828677E+01  0.166787E-06 -0.286713E-07
  0.111951E+02  0.926168E+01  0.192894E-06 -0.322600E-07
  0.111951E+02  0.102366E+02  0.304364E-06 -0.142129E-07
  0.111951E+02  0.112115E+02  0.470146E-08  0.514282E-09
  0.111951E+02  0.121864E+02  0.198941E-08  0.361299E-09
  0.111951E+02  0.131613E+02  0.205032E-09  0.222562E-09
  0.111951E+02  0.141363E+02  0.488955E-10  0.202601E-09
  0.111951E+02  0.151112E+02  0.346694E-05 -0.187108E-06
  0.111951E+02  0.160861E+02  0.112364E-05 -0.147365E-06
  0.111951E+02  0.170610E+02  0.303338E-06 -0.413296E-07
  0.111951E+02  0.180359E+02  0.230573E-06 -0.177521E-07
  0.111951E+02  0.190108E+02  0.218747E-06 -0.242704E-07
  0.111951E+02  0.199857E+02  0.199107E-06 -0.204741E-07
  0.136829E+02  0.487335E+00  0.448568E-06 -0.175956E-07
  0.136829E+02  0.146201E+01  0.214460E-06 -0.449996E-07
  0.136829E+02  0.243668E+01  0.218866E-06 -0.445006E-07
  0.136829E+02  0.341135E+01  0.252959E-06 -0.518222E-07
  0.136829E+02  0.438602E+01  0.107713E-06 -0.434717E-07
  0.136829E+02  0.536069E+01  0.140610E-06 -0.333055E-07
  0.136829E+02  0.633536E+01  0.179709E-06 -0.250667E-07
  0.136829E+02  0.731003E+01  0.231458E-06 -0.261293E-07
  0.136829E+02  0.828470E+01  0.168993E-06 -0.166728E-07
  0.136829E+02  0.925937E+01  0.152529E-06 -0.550287E-08
  0.136829E+02  0.102340E+02  0.222266E-06  0.523736E-11
  0.136829E+02  0.112087E+02  0.591928E-08  0.205203E-10
  0.136829E+02  0.121834E+02  0.153009E-08  0.295443E-09
  0.136829E+02  0.131580E+02  0.509890E-09  0.176020E-09
  0.136829E+02  0.141327E+02  0.956283E-10  0.596495E-10
  0.136829E+02  0.151074E+02  0.246981E-05  0.290051E-06
  0.136829E+02  0.160821E+02  0.120915E-05  0.413901E-06
  0.136829E+02  0.170567E+02  0.518559E-06  0.228907E-06
  0.136829E+02  0.180314E+02  0.241069E-06  0.103166E-06
  0.136829E+02  0.190061E+02  0.226264E-06  0.483215E-07
  0.136829E+02  0.199807E+02  0.191657E-06  0.477161E-08
  0.161707E+02  0.487234E+00  0.686797E-06  0.158282E-08
  0.161707E+02  0.146170E+01  0.626732E-06 -0.600632E-07
  0.161707E+02  0.243617E+01  0.240720E-06 -0.895448E-07
  0.161707E+02  0.341064E+01  0.199288E-06 -0.631595E-07
  0.161707E+02  0.438511E+01  0.888667E-07 -0.389435E-07
  0.161707E+02  0.535958E+01  0.766870E-07 -0.235833E-07
  0.161707E+02  0.633405E+01  0.183138E-06 -0.273308E-07
  0.161707E+02  0.730851E+01  0.155081E-06 -0.146893E-07
  0.161707E+02  0.828298E+01  0.174131E-06 -0.568745E-08
  0.161707E+02  0.925745E+01  0.125556E-06  0.365900E-08
  0.161707E+02  0.102319E+02  0.261528E-06  0.416326E-08
  0.161707E+02  0.112064E+02  0.206491E-08 -0.151967E-10
  0.161707E+02  0.121809E+02  0.199630E-08  0.231134E-09
  0.161707E+02  0.131553E+02  0.188395E-08 -0.159603E-10
  0.161707E+02  0.141298E+02  0.325480E-09 -0.336462E-09
  0.161707E+02  0.151043E+02  0.988879E-06  0.122496E-06
  0.161707E+02  0.160787E+02  0.123192E-05  0.392103E-06
  0.161707E+02  0.170532E+02  0.360202E-06  0.205831E-06
  0.161707E+02  0.180277E+02  0.244140E-06  0.119212E-06
  0.161707E+02  0.190021E+02  0.299621E-06  0.617847E-07
  0.161707E+02  0.199766E+02  0.259772E-06  0.769629E-08
  0.186585E+02  0.487103E+00  0.639472E-06 -0.104319E-08
  0.186585E+02  0.146131E+01  0.626693E-06  0.190714E-07
  0.186585E+02  0.243551E+01  0.264242E-06  0.250841E-07
  0.186585E+02  0.340972E+01  0.134955E-06  0.192256E-07
  0.186585E+02  0.438392E+01  0.955634E-07  0.113565E-07
  0.186585E+02  0.535813E+01  0.137685E-06 -0.190126E-08
  0.186585E+02  0.633233E+01  0.131777E-06  0.136272E-07
  0.186585E+02  0.730654E+01  0.157547E-06  0.133419E-07
  0.186585E+02  0.828074E+01  0.109335E-06  0.241172E-08
  0.186585E+02  0.925495E+01  0.133516E-06 -0.395237E-08
  0.186585E+02  0.102292E+02  0.274633E-06 -0.105576E-07
  0.186585E+02  0.112034E+02  0.366916E-08 -0.307576E-09
  0.186585E+02  0.121776E+02  0.131707E-08 -0.110851E-09
  0.186585E+02  0.131518E+02  0.182763E-08 -0.159329E-10
  0.186585E+02  0.141260E+02  0.749604E-09 -0.492130E-10
  0.186585E+02  0.151002E+02  0.453102E-06  0.490128E-08
  0.186585E+02  0.160744E+02  0.433794E-06  0.344398E-07
  0.186585E+02  0.170486E+02  0.461851E-06  0.139271E-06
  0.186585E+02  0.180228E+02  0.454152E-06  0.146357E-06
  0.186585E+02  0.189970E+02  0.483423E-06  0.127644E-06
  0.186585E+02  0.199712E+02  0.358201E-06  0.340060E-07
  0.211463E+02  0.486887E+00  0.400099E-06  0.399621E-08
  0.211463E+02  0.146066E+01  0.287085E-06  0.173772E-07
  0.211463E+02  0.243443E+01  0.269508E-06  0.497099E-07
  0.211463E+02  0.340821E+01  0.160428E-06  0.583003E-07
  0.211463E+02  0.438198E+01  0.113489E-06  0.348833E-07
  0.211463E+02  0.535575E+01  0.728865E-07  0.196679E-07
  0.211463E+02  0.632952E+01  0.695094E-07  0.187651E-07
  0.211463E+02  0.730330E+01  0.149528E-06  0.347645E-07
  0.211463E+02  0.827707E+01  0.153061E-06  0.270036E-07
  0.211463E+02  0.925084E+01  0.257405E-06 -0.230841E-08
  0.211463E+02  0.102246E+02  0.248799E-06 -0.488356E-08
  0.211463E+02  0.111984E+02  0.140428E-08  0.474051E-09
  0.211463E+02  0.121722E+02  0.137907E-08  0.404682E-09
  0.211463E+02  0.131459E+02  0.156444E-08  0.436918E-09
  0.211463E+02  0.141197E+02  0.539130E-09  0.430551E-09
  0.211463E+02  0.150935E+02  0.526439E-06  0.545591E-08
  0.211463E+02  0.160673E+02  0.408414E-06  0.240122E-07
  0.211463E+02  0.170410E+02  0.402628E-06  0.488067E-07
  0.211463E+02  0.180148E+02  0.653557E-06  0.115376E-06
  0.211463E+02  0.189886E+02  0.506720E-06  0.123674E-06
  0.211463E+02  0.199623E+02  0.100378E-05  0.823183E-07
  0.236341E+02  0.486627E+00  0.343791E-06 -0.269092E-09
  0.236341E+02  0.145988E+01  0.251223E-06  0.322748E-08
  0.236341E+02  0.243314E+01  0.124507E-06  0.220090E-07
  0.236341E+02  0.340639E+01  0.699062E-07  0.294024E-07
  0.236341E+02  0.437965E+01  0.998260E-07  0.324468E-07
  0.236341E+02  0.535290E+01  0.114398E-06  0.277903E-07
  0.236341E+02  0.632616E+01  0.950854E-07  0.101666E-07
  0.236341E+02  0.729941E+01  0.110398E-06  0.654012E-09
  0.236341E+02  0.827266E+01  0.215269E-06  0.510028E-09
  0.236341E+02  0.924592E+01  0.303921E-06 -0.165603E-08
  0.236341E+02  0.102192E+02  0.262116E-06 -0.104169E-07
  0.236341E+02  0.111924E+02  0.871180E-09  0.103753E-08
  0.236341E+02  0.121657E+02  0.165240E-08  0.140486E-08
  0.236341E+02  0.131389E+02  0.144635E-08  0.127862E-08
  0.236341E+02  0.141122E+02  0.745262E-09  0.724082E-09
  0.236341E+02  0.150854E+02  0.554191E-06  0.334713E-07
  0.236341E+02  0.160587E+02  0.532852E-06  0.687177E-07
  0.236341E+02  0.170320E+02  0.437522E-06  0.699336E-07
  0.236341E+02  0.180052E+02  0.484782E-06  0.677709E-07
  0.236341E+02  0.189785E+02  0.664249E-06  0.601531E-07
  0.236341E+02  0.199517E+02  0.164172E-05 -0.722610E-08
  0.261220E+02  0.486386E+00  0.307040E-06  0.405599E-08
  0.261220E+02  0.145916E+01  0.195021E-06  0.206450E-07
  0.261220E+02  0.243193E+01  0.579448E-07  0.134481E-07
  0.261220E+02  0.340470E+01  0.627637E-07  0.173460E-07
  0.261220E+02  0.437747E+01  0.126045E-06  0.147421E-07
  0.261220E+02  0.535025E+01  0.141648E-06  0.138225E-07
  0.261220E+02  0.632302E+01  0.160313E-06  0.130755E-07
  0.261220E+02  0.729579E+01  0.196954E-06 -0.103026E-07
  0.261220E+02  0.826856E+01  0.259169E-06 -0.276139E-07
  0.261220E+02  0.924133E+01  0.396109E-06 -0.339144E-07
  0.261220E+02  0.102141E+02  0.150221E-06 -0.825120E-08
  0.261220E+02  0.111869E+02  0.184750E-08  0.330425E-08
  0.261220E+02  0.121596E+02  0.139122E-08  0.244139E-08
  0.261220E+02  0.131324E+02  0.188463E-08  0.211554E-08
  0.261220E+02  0.141052E+02  0.246793E-08  0.192995E-08
  0.261220E+02  0.150780E+02  0.421524E-06  0.496160E-07
  0.261220E+02  0.160507E+02  0.459797E-06  0.163420E-06
  0.261220E+02  0.170235E+02  0.523855E-06  0.161694E-06
  0.261220E+02  0.179963E+02  0.793180E-06  0.556974E-07
  0.261220E+02  0.189691E+02  0.984901E-06 -0.425522E-07
  0.261220E+02  0.199418E+02  0.171273E-05 -0.320970E-07
  0.286098E+02  0.486059E+00  0.338835E-06  0.317123E-07
  0.286098E+02  0.145818E+01  0.156002E-06  0.536808E-07
  0.286098E+02  0.243030E+01  0.147161E-06  0.468632E-07
  0.286098E+02  0.340241E+01  0.182703E-06  0.702430E-08
  0.286098E+02  0.437453E+01  0.197878E-06 -0.101943E-07
  0.286098E+02  0.534665E+01  0.114646E-06 -0.666155E-08
  0.286098E+02  0.631877E+01  0.277521E-06 -0.225280E-07
  0.286098E+02  0.729089E+01  0.274510E-06 -0.335042E-07
  0.286098E+02  0.826301E+01  0.292510E-06 -0.191122E-07
  0.286098E+02  0.923513E+01  0.304559E-06  0.212862E-07
  0.286098E+02  0.102072E+02  0.194360E-06  0.204255E-07
  0.286098E+02  0.111794E+02  0.421769E-09  0.116633E-08
  0.286098E+02  0.121515E+02  0.120290E-08  0.225647E-08
  0.286098E+02  0.131236E+02  0.286898E-08  0.296740E-08
  0.286098E+02  0.140957E+02  0.453938E-08  0.308915E-08
  0.286098E+02  0.150678E+02  0.246124E-06  0.116932E-07
  0.286098E+02  0.160400E+02  0.154442E-06  0.197906E-07
  0.286098E+02  0.170121E+02  0.538710E-06  0.502132E-07
  0.286098E+02  0.179842E+02  0.143983E-05  0.375942E-08
  0.286098E+02  0.189563E+02  0.127807E-05 -0.177605E-07
  0.286098E+02  0.199284E+02  0.204454E-05 -0.167577E-07
  0.310976E+02  0.485810E+00  0.188729E-06  0.261970E-07
  0.310976E+02  0.145743E+01  0.206619E-06  0.679513E-07
  0.310976E+02  0.242905E+01  0.290101E-06  0.850426E-07
  0.310976E+02  0.340067E+01  0.356484E-06  0.753943E-07
  0.310976E+02  0.437229E+01  0.243509E-06  0.380961E-07
  0.310976E+02  0.534391E+01  0.323431E-06  0.174741E-07
  0.310976E+02  0.631553E+01  0.355548E-06  0.370857E-08
  0.310976E+02  0.728715E+01  0.276682E-06 -0.104821E-08
  0.310976E+02  0.825877E+01  0.288682E-06  0.641376E-08
  0.310976E+02  0.923039E+01  0.252083E-06  0.847095E-08
  0.310976E+02  0.102020E+02  0.307931E-06  0.215809E-08
  0.310976E+02  0.111736E+02  0.201744E-09  0.177573E-08
  0.310976E+02  0.121453E+02  0.314601E-09  0.161667E-08
  0.310976E+02  0.131169E+02  0.128222E-08  0.195070E-08
  0.310976E+02  0.140885E+02  0.234627E-08  0.215181E-08
  0.310976E+02  0.150601E+02  0.206989E-06 -0.268712E-09
  0.310976E+02  0.160317E+02  0.164961E-06 -0.177464E-07
  0.310976E+02  0.170034E+02  0.644613E-06 -0.790785E-07
  0.310976E+02  0.179750E+02  0.111588E-05 -0.760923E-07
  0.310976E+02  0.189466E+02  0.117821E-05 -0.876641E-07
  0.310976E+02  0.199182E+02  0.199074E-05 -0.459899E-07
  0.335854E+02  0.485505E+00  0.101260E-06 -0.277152E-08
  0.335854E+02  0.145652E+01  0.157317E-06 -0.396073E-09
  0.335854E+02  0.242753E+01  0.170927E-06  0.198927E-07
  0.335854E+02  0.339854E+01  0.474555E-06  0.982596E-07
  0.335854E+02  0.436955E+01  0.577491E-06  0.203457E-06
  0.335854E+02  0.534056E+01  0.371572E-06  0.100084E-06
  0.335854E+02  0.631157E+01  0.501365E-06  0.753022E-07
  0.335854E+02  0.728258E+01  0.466068E-06  0.214671E-07
  0.335854E+02  0.825359E+01  0.289740E-06 -0.441227E-08
  0.335854E+02  0.922460E+01  0.366910E-06  0.366343E-08
  0.335854E+02  0.101956E+02  0.268937E-06  0.236899E-08
  0.335854E+02  0.111666E+02  0.169694E-09  0.649447E-09
  0.335854E+02  0.121376E+02  0.363053E-09  0.707870E-09
  0.335854E+02  0.131086E+02  0.316068E-09  0.453212E-09
  0.335854E+02  0.140797E+02  0.218655E-08  0.134678E-08
  0.335854E+02  0.150507E+02  0.209637E-06 -0.247618E-09
  0.335854E+02  0.160217E+02  0.370529E-06 -0.398839E-07
  0.335854E+02  0.169927E+02  0.744132E-06 -0.101316E-06
  0.335854E+02  0.179637E+02  0.176544E-05 -0.263004E-06
  0.335854E+02  0.189347E+02  0.114771E-05 -0.315378E-06
  0.335854E+02  0.199057E+02  0.162950E-05 -0.178467E-06
  0.360732E+02  0.485322E+00  0.240618E-06  0.331872E-09
  0.360732E+02  0.145597E+01  0.132518E-06 -0.441123E-10
  0.360732E+02  0.242661E+01  0.237812E-06  0.699241E-08
  0.360732E+02  0.339725E+01  0.333890E-06  0.366959E-07
  0.360732E+02  0.436790E+01  0.324520E-06  0.712101E-07
  0.360732E+02  0.533854E+01  0.797706E-06  0.135321E-06
  0.360732E+02  0.630918E+01  0.771645E-06  0.823925E-07
  0.360732E+02  0.727983E+01  0.733222E-06  0.507895E-07
  0.360732E+02  0.825047E+01  0.415429E-06  0.122204E-07
  0.360732E+02  0.922111E+01  0.233732E-06  0.140493E-07
  0.360732E+02  0.101918E+02  0.381667E-06  0.227238E-07
  0.360732E+02  0.111624E+02  0.341429E-10  0.492366E-09
  0.360732E+02  0.121330E+02  0.354339E-09  0.163569E-08
  0.360732E+02  0.131037E+02  0.985055E-09  0.170096E-08
  0.360732E+02  0.140743E+02  0.157017E-08  0.151871E-08
  0.360732E+02  0.150450E+02  0.276489E-06 -0.866934E-08
  0.360732E+02  0.160156E+02  0.862535E-06 -0.111481E-06
  0.360732E+02  0.169863E+02  0.138298E-05 -0.332481E-06
  0.360732E+02  0.179569E+02  0.192927E-05 -0.412929E-06
  0.360732E+02  0.189275E+02  0.100862E-05 -0.276255E-06
  0.360732E+02  0.198982E+02  0.766663E-06 -0.972335E-07
  0.385610E+02  0.485112E+00  0.195294E-06  0.135640E-07
  0.385610E+02  0.145534E+01  0.300461E-06  0.115892E-07
  0.385610E+02  0.242556E+01  0.273641E-06 -0.489168E-08
  0.385610E+02  0.339579E+01  0.304121E-06  0.104649E-07
  0.385610E+02  0.436601E+01  0.421751E-06  0.509591E-08
  0.385610E+02  0.533624E+01  0.819402E-06  0.568539E-07
  0.385610E+02  0.630646E+01  0.997188E-06  0.654456E-07
  0.385610E+02  0.727669E+01  0.741349E-06  0.560644E-07
  0.385610E+02  0.824691E+01  0.685590E-06  0.603129E-07
  0.385610E+02  0.921714E+01  0.208523E-06  0.108957E-07
  0.385610E+02  0.101874E+02  0.508490E-06 -0.489299E-09
  0.385610E+02  0.111576E+02  0.754482E-10  0.117391E-08
  0.385610E+02  0.121278E+02  0.150950E-09  0.736996E-09
  0.385610E+02  0.130980E+02  0.589288E-09  0.133025E-08
  0.385610E+02  0.140683E+02  0.117421E-08  0.158533E-08
  0.385610E+02  0.150385E+02  0.502735E-06 -0.783185E-07
  0.385610E+02  0.160087E+02  0.136922E-05 -0.313807E-06
  0.385610E+02  0.169789E+02  0.183581E-05 -0.344837E-06
  0.385610E+02  0.179492E+02  0.152187E-05 -0.153263E-06
  0.385610E+02  0.189194E+02  0.730608E-06 -0.630020E-07
  0.385610E+02  0.198896E+02  0.613654E-06 -0.272002E-07
  0.410488E+02  0.484872E+00  0.213661E-06 -0.156326E-07
  0.410488E+02  0.145462E+01  0.454889E-06 -0.266916E-07
  0.410488E+02  0.242436E+01  0.192136E-06 -0.720096E-08
  0.410488E+02  0.339410E+01  0.522183E-06 -0.779568E-07
  0.410488E+02  0.436385E+01  0.309543E-06 -0.108376E-06
  0.410488E+02  0.533359E+01  0.526521E-06 -0.811508E-07
  0.410488E+02  0.630333E+01  0.119827E-05  0.811582E-07
  0.410488E+02  0.727308E+01  0.101805E-05  0.102978E-06
  0.410488E+02  0.824282E+01  0.668842E-06  0.365116E-07
  0.410488E+02  0.921256E+01  0.364763E-06 -0.114182E-07
  0.410488E+02  0.101823E+02  0.438689E-06 -0.261901E-07
  0.410488E+02  0.111520E+02  0.252053E-10  0.549979E-09
  0.410488E+02  0.121218E+02  0.236310E-09  0.111218E-08
  0.410488E+02  0.130915E+02  0.826351E-10  0.470772E-09
  0.410488E+02  0.140613E+02  0.261117E-09  0.866786E-09
  0.410488E+02  0.150310E+02  0.111771E-05 -0.105862E-06
  0.410488E+02  0.160008E+02  0.151507E-05 -0.216388E-06
  0.410488E+02  0.169705E+02  0.109917E-05 -0.150298E-06
  0.410488E+02  0.179403E+02  0.121934E-05 -0.950485E-07
  0.410488E+02  0.189100E+02  0.670037E-06 -0.123733E-07
  0.410488E+02  0.198797E+02  0.582209E-06 -0.115864E-07
  0.435366E+02  0.484590E+00  0.446708E-06 -0.402021E-07
  0.435366E+02  0.145377E+01  0.320358E-06 -0.593257E-07
  0.435366E+02  0.242295E+01  0.416816E-06 -0.117133E-06
  0.435366E+02  0.339213E+01  0.795965E-06 -0.150003E-06
  0.435366E+02  0.436131E+01  0.409029E-06 -0.166339E-06
  0.435366E+02  0.533049E+01  0.374873E-06 -0.171295E-06
  0.435366E+02  0.629967E+01  0.739025E-06 -0.241796E-06
  0.435366E+02  0.726884E+01  0.799297E-06 -0.849701E-07
  0.435366E+02  0.823802E+01  0.803676E-06  0.106560E-07
  0.435366E+02  0.920720E+01  0.443389E-06  0.191020E-07
  0.435366E+02  0.101764E+02  0.325804E-06  0.104644E-07
  0.435366E+02  0.111456E+02  0.182313E-10  0.531478E-09
  0.435366E+02  0.121147E+02  0.224340E-09  0.942127E-09
  0.435366E+02  0.130839E+02  0.350713E-09  0.129360E-08
  0.435366E+02  0.140531E+02  0.119711E-09  0.717201E-09
  0.435366E+02  0.150223E+02  0.979271E-06  0.490012E-07
  0.435366E+02  0.159915E+02  0.139362E-05  0.697004E-07
  0.435366E+02  0.169606E+02  0.147092E-05 -0.685484E-07
  0.435366E+02  0.179298E+02  0.822139E-06 -0.895862E-07
  0.435366E+02  0.188990E+02  0.502827E-06 -0.450743E-07
  0.435366E+02  0.198682E+02  0.489467E-06 -0.184021E-07
  0.460244E+02  0.484319E+00  0.671488E-06 -0.658587E-07
  0.460244E+02  0.145296E+01  0.523557E-06 -0.199712E-06
  0.460244E+02  0.242160E+01  0.293499E-06 -0.196709E-06
  0.460244E+02  0.339024E+01  0.534651E-06 -0.157712E-06
  0.460244E+02  0.435888E+01  0.467068E-06 -0.141017E-06
  0.460244E+02  0.532751E+01  0.663541E-06 -0.227477E-06
  0.460244E+02  0.629615E+01  0.366487E-06 -0.140853E-06
  0.460244E+02  0.726479E+01  0.303695E-06 -0.523699E-07
  0.460244E+02  0.823343E+01  0.399466E-06  0.183072E-07
  0.460244E+02  0.920207E+01  0.340873E-06  0.466216E-07
  0.460244E+02  0.101707E+02  0.406120E-06  0.255684E-07
  0.460244E+02  0.111393E+02  0.313633E-09  0.330280E-08
  0.460244E+02  0.121080E+02  0.179724E-08  0.349857E-08
  0.460244E+02  0.130766E+02  0.325810E-08  0.225250E-08
  0.460244E+02  0.140453E+02  0.482211E-09  0.121979E-08
  0.460244E+02  0.150139E+02  0.775982E-06 -0.250197E-07
  0.460244E+02  0.159825E+02  0.128232E-05 -0.673846E-07
  0.460244E+02  0.169512E+02  0.138520E-05 -0.349084E-07
  0.460244E+02  0.179198E+02  0.772712E-06 -0.261637E-07
  0.460244E+02  0.188885E+02  0.378059E-06 -0.373920E-07
  0.460244E+02  0.198571E+02  0.386816E-06 -0.274512E-07
  0.485122E+02  0.484126E+00  0.115591E-05 -0.950143E-07
  0.485122E+02  0.145238E+01  0.544641E-06 -0.124654E-06
  0.485122E+02  0.242063E+01  0.286598E-06 -0.117888E-06
  0.485122E+02  0.338888E+01  0.408894E-06 -0.118023E-06
  0.485122E+02  0.435713E+01  0.319667E-06 -0.783628E-07
  0.485122E+02  0.532539E+01  0.459130E-06 -0.102406E-07
  0.485122E+02  0.629364E+01  0.184379E-06  0.133053E-07
  0.485122E+02  0.726189E+01  0.189265E-06  0.958519E-08
  0.485122E+02  0.823014E+01  0.169065E-06  0.130718E-07
  0.485122E+02  0.919840E+01  0.316406E-06  0.246615E-07
  0.485122E+02  0.101666E+02  0.362944E-06  0.135994E-07
  0.485122E+02  0.111349E+02  0.316192E-09  0.494579E-08
  0.485122E+02  0.121032E+02  0.110923E-08  0.613993E-08
  0.485122E+02  0.130714E+02  0.471652E-08  0.998961E-08
  0.485122E+02  0.140397E+02  0.204146E-08  0.820765E-08
  0.485122E+02  0.150079E+02  0.109824E-05 -0.670589E-07
  0.485122E+02  0.159762E+02  0.107596E-05 -0.976154E-07
  0.485122E+02  0.169444E+02  0.879316E-06 -0.419026E-07
  0.485122E+02  0.179127E+02  0.558360E-06 -0.138361E-07
  0.485122E+02  0.188809E+02  0.502211E-06 -0.203690E-07
  0.485122E+02  0.198492E+02  0.341137E-06 -0.266810E-07
  0.510000E+02  0.484011E+00  0.905519E-06  0.204156E-07
  0.510000E+02  0.145203E+01  0.398009E-06  0.262774E-07
  0.510000E+02  0.242005E+01  0.510021E-06 -0.301399E-07
  0.510000E+02  0.338808E+01  0.370124E-06 -0.645489E-07
  0.510000E+02  0.435610E+01  0.219648E-06 -0.251543E-07
  0.510000E+02  0.532412E+01  0.221213E-06  0.607452E-08
  0.510000E+02  0.629214E+01  0.176978E-06  0.423730E-07
  0.510000E+02  0.726016E+01  0.216874E-06  0.642072E-07
  0.510000E+02  0.822819E+01  0.228509E-06  0.331439E-07
  0.510000E+02  0.919621E+01  0.282259E-06  0.280383E-07
  0.510000E+02  0.101642E+02  0.403566E-06  0.240681E-07
  0.510000E+02  0.111323E+02  0.347106E-09  0.811802E-08
  0.510000E+02  0.121003E+02  0.475219E-09  0.710708E-08
  0.510000E+02  0.130683E+02  0.105678E-08  0.764028E-08
  0.510000E+02  0.140363E+02  0.135315E-08  0.667492E-08
  0.510000E+02  0.150043E+02  0.102665E-05 -0.274446E-07
  0.510000E+02  0.159724E+02  0.791216E-06 -0.301973E-07
  0.510000E+02  0.169404E+02  0.832084E-06  0.102784E-07
  0.510000E+02  0.179084E+02  0.505703E-06  0.436609E-07
  0.510000E+02  0.188764E+02  0.397669E-06  0.357365E-07
  0.510000E+02  0.198444E+02  0.266384E-06  0.119051E-08
  0.534878E+02  0.483852E+00  0.675937E-06  0.227752E-07
  0.534878E+02  0.145156E+01  0.418037E-06  0.340888E-07
  0.534878E+02  0.241926E+01  0.642879E-06  0.191217E-07
  0.534878E+02  0.338697E+01  0.317228E-06  0.351121E-07
  0.534878E+02  0.435467E+01  0.132828E-06  0.228981E-07
  0.534878E+02  0.532237E+01  0.210732E-06  0.452590E-07
  0.534878E+02  0.629008E+01  0.134252E-06  0.327270E-07
  0.534878E+02  0.725778E+01  0.192879E-06  0.215264E-07
  0.534878E+02  0.822549E+01  0.372743E-06  0.682194E-08
  0.534878E+02  0.919319E+01  0.216876E-06  0.160679E-08
  0.534878E+02  0.101609E+02  0.561536E-06 -0.345205E-08
  0.534878E+02  0.111286E+02  0.185427E-09  0.387711E-08
  0.534878E+02  0.120963E+02  0.100061E-08  0.536055E-08
  0.534878E+02  0.130640E+02  0.885953E-09  0.404099E-08
  0.534878E+02  0.140317E+02  0.140514E-08  0.480779E-08
  0.534878E+02  0.149994E+02  0.969277E-06  0.804933E-08
  0.534878E+02  0.159671E+02  0.510066E-06 -0.676239E-09
  0.534878E+02  0.169348E+02  0.474561E-06  0.416388E-07
  0.534878E+02  0.179025E+02  0.185477E-06  0.455106E-07
  0.534878E+02  0.188702E+02  0.455464E-06  0.750271E-07
  0.534878E+02  0.198379E+02  0.392088E-06  0.254765E-07
  0.559756E+02  0.483531E+00  0.535373E-06  0.198213E-07
  0.559756E+02  0.145059E+01  0.387831E-06  0.458002E-07
  0.559756E+02  0.241766E+01  0.284185E-06  0.946356E-07
  0.559756E+02  0.338472E+01  0.255993E-06  0.145672E-06
  0.559756E+02  0.435178E+01  0.232252E-06  0.131873E-06
  0.559756E+02  0.531885E+01  0.150875E-06  0.735996E-07
  0.559756E+02  0.628591E+01  0.179900E-06  0.612349E-07
  0.559756E+02  0.725297E+01  0.496277E-06 -0.702766E-08
  0.559756E+02  0.822003E+01  0.272776E-06 -0.448308E-07
  0.559756E+02  0.918710E+01  0.347761E-06 -0.545245E-07
  0.559756E+02  0.101542E+02  0.316116E-06 -0.282603E-07
  0.559756E+02  0.111212E+02  0.234295E-10  0.107687E-08
  0.559756E+02  0.120883E+02  0.121989E-09  0.958275E-09
  0.559756E+02  0.130553E+02  0.620878E-09  0.209513E-08
  0.559756E+02  0.140224E+02  0.642832E-09  0.245663E-08
  0.559756E+02  0.149895E+02  0.615784E-06  0.155175E-07
  0.559756E+02  0.159565E+02  0.532980E-06  0.433410E-07
  0.559756E+02  0.169236E+02  0.175567E-06  0.193374E-07
  0.559756E+02  0.178907E+02  0.327600E-06  0.368431E-07
  0.559756E+02  0.188577E+02  0.368432E-06  0.230086E-07
  0.559756E+02  0.198248E+02  0.712539E-06  0.134540E-07
  0.584634E+02  0.483265E+00  0.343903E-06  0.303674E-07
  0.584634E+02  0.144980E+01  0.218635E-06  0.936567E-07
  0.584634E+02  0.241633E+01  0.186472E-06  0.150615E-06
  0.584634E+02  0.338286E+01  0.239797E-06  0.192722E-06
  0.584634E+02  0.434939E+01  0.200456E-06  0.170071E-06
  0.584634E+02  0.531592E+01  0.299911E-06  0.163402E-06
  0.584634E+02  0.628245E+01  0.419002E-06  0.473926E-07
  0.584634E+02  0.724898E+01  0.604524E-06 -0.374690E-07
  0.584634E+02  0.821551E+01  0.274883E-06 -0.239335E-07
  0.584634E+02  0.918204E+01  0.396559E-06 -0.180232E-07
  0.584634E+02  0.101486E+02  0.280721E-06 -0.760335E-08
  0.584634E+02  0.111151E+02 -0.383027E-10  0.753303E-09
  0.584634E+02  0.120816E+02 -0.358552E-09  0.159431E-08
  0.584634E+02  0.130482E+02  0.663555E-11  0.203866E-08
  0.584634E+02  0.140147E+02  0.277365E-09  0.148462E-08
  0.584634E+02  0.149812E+02  0.599242E-06  0.675768E-07
  0.584634E+02  0.159478E+02  0.545615E-06  0.592974E-07
  0.584634E+02  0.169143E+02  0.425337E-06  0.379206E-07
  0.584634E+02  0.178808E+02  0.308865E-06  0.202164E-07
  0.584634E+02  0.188474E+02  0.511035E-06 -0.503575E-08
  0.584634E+02  0.198139E+02  0.670742E-06 -0.227810E-07
  0.609512E+02  0.482826E+00  0.147977E-06  0.162478E-07
  0.609512E+02  0.144848E+01  0.926965E-07  0.222264E-07
  0.609512E+02  0.241413E+01  0.803798E-07  0.306334E-07
  0.609512E+02  0.337978E+01  0.163866E-06  0.616338E-07
  0.609512E+02  0.434543E+01  0.192499E-06  0.708214E-07
  0.609512E+02  0.531109E+01  0.395142E-06  0.473599E-07
  0.609512E+02  0.627674E+01  0.915179E-06  0.264694E-08
  0.609512E+02  0.724239E+01  0.534275E-06  0.181649E-07
  0.609512E+02  0.820804E+01  0.281938E-06  0.904370E-08
  0.609512E+02  0.917370E+01  0.434416E-06 -0.205092E-07
  0.609512E+02  0.101393E+02  0.273769E-06 -0.158150E-07
  0.609512E+02  0.111050E+02  0.544651E-09  0.286066E-08
  0.609512E+02  0.120707E+02  0.908686E-09  0.150022E-08
  0.609512E+02  0.130363E+02  0.305129E-09  0.138007E-08
  0.609512E+02  0.140020E+02  0.669706E-09  0.232626E-08
  0.609512E+02  0.149676E+02  0.316889E-06  0.519461E-08
  0.609512E+02  0.159333E+02  0.107988E-05  0.461828E-07
  0.609512E+02  0.168989E+02  0.395787E-06  0.436568E-07
  0.609512E+02  0.178646E+02  0.566562E-06  0.369496E-07
  0.609512E+02  0.188302E+02  0.878985E-06 -0.315823E-07