variables="x","h","c"
zone i=     42,T= "1dxhc;t= 0.1500E+03y,z:   1   1"
    0.00000E+00    0.50000E+00    0.00000E+00
    0.24878E+01    0.49538E+00    0.72685E-20
    0.49756E+01    0.49246E+00    0.29891E-19
    0.74634E+01    0.48894E+00    0.41703E-19
    0.99512E+01    0.48165E+00    0.19520E-18
    0.12439E+02    0.47231E+00    0.61335E-18
    0.14927E+02    0.46017E+00    0.25829E-17
    0.17415E+02    0.45384E+00    0.70432E-17
    0.19902E+02    0.44975E+00    0.37052E-16
    0.22390E+02    0.44721E+00    0.37106E-16
    0.24878E+02    0.44154E+00    0.20648E-15
    0.27366E+02    0.43522E+00    0.12713E-14
    0.29854E+02    0.43148E+00    0.29616E-14
    0.32341E+02    0.42843E+00    0.11675E-13
    0.34829E+02    0.42545E+00    0.23764E-13
    0.37317E+02    0.42182E+00    0.19880E-14
    0.39805E+02    0.41826E+00    0.47460E-13
    0.42293E+02    0.41463E+00    0.15334E-13
    0.44780E+02    0.41163E+00   -0.18201E-13
    0.47268E+02    0.40955E+00    0.10347E-12
    0.49756E+02    0.40548E+00    0.94497E-13
    0.52244E+02    0.39917E+00    0.35810E-12
    0.54732E+02    0.39307E+00    0.21263E-11
    0.57220E+02    0.38752E+00    0.28860E-10
    0.59707E+02    0.38118E+00    0.48147E-09
    0.62195E+02    0.37840E+00    0.61299E-08
    0.64683E+02    0.37509E+00    0.21556E-07
    0.67171E+02    0.36920E+00    0.11762E-06
    0.69659E+02    0.36120E+00    0.70293E-06
    0.72146E+02    0.35492E+00    0.27924E-05
    0.74634E+02    0.35166E+00    0.67577E-05
    0.77122E+02    0.34606E+00    0.85421E-05
    0.79610E+02    0.33882E+00    0.37851E-04
    0.82098E+02    0.32630E+00    0.21573E-03
    0.84585E+02    0.32188E+00    0.75426E-03
    0.87073E+02    0.31929E+00   -0.21820E-02
    0.89561E+02    0.32466E+00    0.81907E-01
    0.92049E+02    0.33556E+00    0.30782E+00
    0.94537E+02    0.35346E+00    0.53792E+00
    0.97024E+02    0.36477E+00    0.65950E+00
    0.99512E+02    0.38550E+00    0.87932E+00
    0.10200E+03    0.40013E+00    0.10000E+01
zone i=     42,T= "1dxhc;t= 0.1500E+03y,z:   1  12"
    0.00000E+00    0.50000E+00    0.00000E+00
    0.24878E+01    0.49717E+00    0.22421E-20
    0.49756E+01    0.49382E+00    0.55095E-20
    0.74634E+01    0.48884E+00    0.26035E-19
    0.99512E+01    0.48131E+00    0.26129E-18
    0.12439E+02    0.47392E+00    0.45370E-18
    0.14927E+02    0.46291E+00    0.10514E-17
    0.17415E+02    0.45474E+00    0.26672E-17
    0.19902E+02    0.44822E+00    0.15603E-16
    0.22390E+02    0.44531E+00    0.10864E-15
    0.24878E+02    0.44339E+00    0.52120E-15
    0.27366E+02    0.43865E+00    0.43040E-14
    0.29854E+02    0.43452E+00    0.18776E-13
    0.32341E+02    0.42702E+00    0.54090E-13
    0.34829E+02    0.42335E+00    0.83850E-13
    0.37317E+02    0.41872E+00    0.58650E-12
    0.39805E+02    0.41542E+00    0.23321E-11
    0.42293E+02    0.41282E+00    0.59150E-11
    0.44780E+02    0.41053E+00    0.14924E-10
    0.47268E+02    0.40779E+00    0.14326E-10
    0.49756E+02    0.40440E+00    0.11469E-10
    0.52244E+02    0.39875E+00    0.64980E-11
    0.54732E+02    0.39221E+00    0.55488E-11
    0.57220E+02    0.38727E+00    0.34385E-12
    0.59707E+02    0.38244E+00   -0.10194E-11
    0.62195E+02    0.37760E+00   -0.14574E-09
    0.64683E+02    0.37303E+00    0.58963E-10
    0.67171E+02    0.36909E+00    0.17441E-08
    0.69659E+02    0.36493E+00   -0.45468E-07
    0.72146E+02    0.35604E+00   -0.39080E-06
    0.74634E+02    0.34760E+00    0.63097E-07
    0.77122E+02    0.33665E+00    0.12003E-05
    0.79610E+02    0.32607E+00    0.18505E-04
    0.82098E+02    0.31870E+00    0.17707E-03
    0.84585E+02    0.31087E+00    0.55562E-03
    0.87073E+02    0.30230E+00    0.18085E-02
    0.89561E+02    0.29517E+00    0.67945E-02
    0.92049E+02    0.27990E+00    0.16405E-01
    0.94537E+02    0.25820E+00    0.77140E-01
    0.97024E+02    0.23504E+00    0.15061E+00
    0.99512E+02    0.18993E+00    0.40578E+00
    0.10200E+03    0.16005E+00    0.10000E+01
zone i=     42,T= "1dxhc;t= 0.1500E+03y,z:   1  22"
    0.00000E+00    0.49772E+00   -0.37145E-19
    0.24878E+01    0.48858E+00   -0.11963E-18
    0.49756E+01    0.48207E+00   -0.50594E-18
    0.74634E+01    0.47384E+00   -0.27893E-17
    0.99512E+01    0.46536E+00   -0.99459E-17
    0.12439E+02    0.45805E+00   -0.40301E-16
    0.14927E+02    0.45226E+00   -0.12093E-15
    0.17415E+02    0.44840E+00   -0.15020E-15
    0.19902E+02    0.44524E+00   -0.21545E-15
    0.22390E+02    0.43673E+00   -0.33497E-15
    0.24878E+02    0.42679E+00   -0.76693E-15
    0.27366E+02    0.41751E+00   -0.26181E-14
    0.29854E+02    0.40998E+00   -0.10699E-13
    0.32341E+02    0.39911E+00   -0.31824E-13
    0.34829E+02    0.38098E+00   -0.13080E-12
    0.37317E+02    0.36899E+00   -0.26522E-12
    0.39805E+02    0.35727E+00   -0.36570E-12
    0.42293E+02    0.34616E+00   -0.88738E-12
    0.44780E+02    0.33387E+00   -0.21355E-11
    0.47268E+02    0.32994E+00   -0.39502E-11
    0.49756E+02    0.32606E+00   -0.82209E-11
    0.52244E+02    0.32170E+00   -0.15644E-10
    0.54732E+02    0.30959E+00   -0.34179E-10
    0.57220E+02    0.29960E+00   -0.10596E-10
    0.59707E+02    0.28888E+00    0.87162E-10
    0.62195E+02    0.26982E+00    0.24430E-09
    0.64683E+02    0.24111E+00    0.10184E-08
    0.67171E+02    0.21946E+00    0.55306E-08
    0.69659E+02    0.20784E+00    0.26364E-07
    0.72146E+02    0.19995E+00    0.91970E-07
    0.74634E+02    0.18710E+00    0.29228E-06
    0.77122E+02    0.17706E+00    0.87278E-06
    0.79610E+02    0.17028E+00    0.20663E-05
    0.82098E+02    0.16554E+00    0.36609E-05
    0.84585E+02    0.16048E+00    0.38884E-05
    0.87073E+02    0.15336E+00    0.53744E-05
    0.89561E+02    0.13141E+00    0.37809E-05
    0.92049E+02    0.10669E+00   -0.18962E-05
    0.94537E+02    0.74921E-01    0.71928E-04
    0.97024E+02    0.53580E-01    0.15454E-04
    0.99512E+02    0.30846E-01   -0.13008E-03
    0.10200E+03    0.66188E-02   -0.42941E-03
zone i=     42,T= "1dxhc;t= 0.3000E+03y,z:   1   1"
    0.00000E+00    0.50000E+00    0.00000E+00
    0.24878E+01    0.49537E+00    0.52944E-17
    0.49756E+01    0.49243E+00    0.18627E-16
    0.74634E+01    0.48891E+00    0.24812E-16
    0.99512E+01    0.48160E+00    0.98112E-16
    0.12439E+02    0.47224E+00    0.25403E-15
    0.14927E+02    0.46006E+00    0.89836E-15
    0.17415E+02    0.45372E+00    0.22293E-14
    0.19902E+02    0.44961E+00    0.96282E-14
    0.22390E+02    0.44707E+00    0.87599E-14
    0.24878E+02    0.44137E+00    0.42992E-13
    0.27366E+02    0.43504E+00    0.20215E-12
    0.29854E+02    0.43128E+00    0.37609E-12
    0.32341E+02    0.42822E+00    0.13234E-11
    0.34829E+02    0.42523E+00    0.27323E-11
    0.37317E+02    0.42159E+00    0.89861E-12
    0.39805E+02    0.41802E+00    0.61274E-11
    0.42293E+02    0.41437E+00    0.51684E-11
    0.44780E+02    0.41136E+00    0.55100E-11
    0.47268E+02    0.40927E+00    0.28420E-10
    0.49756E+02    0.40518E+00    0.34391E-10
    0.52244E+02    0.39885E+00    0.10727E-09
    0.54732E+02    0.39272E+00    0.48269E-09
    0.57220E+02    0.38715E+00    0.45700E-08
    0.59707E+02    0.38078E+00    0.51459E-07
    0.62195E+02    0.37798E+00    0.45461E-06
    0.64683E+02    0.37466E+00    0.13045E-05
    0.67171E+02    0.36875E+00    0.51997E-05
    0.69659E+02    0.36077E+00    0.22104E-04
    0.72146E+02    0.35452E+00    0.68745E-04
    0.74634E+02    0.35130E+00    0.12340E-03
    0.77122E+02    0.34579E+00    0.18997E-03
    0.79610E+02    0.33896E+00    0.75898E-03
    0.82098E+02    0.32903E+00    0.39790E-02
    0.84585E+02    0.32789E+00    0.27446E-02
    0.87073E+02    0.33393E+00    0.15173E+00
    0.89561E+02    0.34689E+00    0.34950E+00
    0.92049E+02    0.35897E+00    0.58499E+00
    0.94537E+02    0.37336E+00    0.73663E+00
    0.97024E+02    0.38151E+00    0.81491E+00
    0.99512E+02    0.39555E+00    0.92745E+00
    0.10200E+03    0.40012E+00    0.10000E+01
zone i=     42,T= "1dxhc;t= 0.3000E+03y,z:   1  12"
    0.00000E+00    0.50000E+00    0.00000E+00
    0.24878E+01    0.49716E+00    0.14989E-17
    0.49756E+01    0.49380E+00    0.37429E-17
    0.74634E+01    0.48881E+00    0.13989E-16
    0.99512E+01    0.48125E+00    0.11107E-15
    0.12439E+02    0.47385E+00    0.16765E-15
    0.14927E+02    0.46281E+00    0.37894E-15
    0.17415E+02    0.45462E+00    0.86334E-15
    0.19902E+02    0.44807E+00    0.41093E-14
    0.22390E+02    0.44516E+00    0.23473E-13
    0.24878E+02    0.44323E+00    0.90465E-13
    0.27366E+02    0.43848E+00    0.57909E-12
    0.29854E+02    0.43433E+00    0.19705E-11
    0.32341E+02    0.42681E+00    0.47744E-11
    0.34829E+02    0.42312E+00    0.66354E-11
    0.37317E+02    0.41847E+00    0.38214E-10
    0.39805E+02    0.41517E+00    0.12057E-09
    0.42293E+02    0.41255E+00    0.26833E-09
    0.44780E+02    0.41026E+00    0.64635E-09
    0.47268E+02    0.40751E+00    0.61960E-09
    0.49756E+02    0.40410E+00    0.52296E-09
    0.52244E+02    0.39843E+00    0.30389E-09
    0.54732E+02    0.39187E+00    0.25135E-09
    0.57220E+02    0.38690E+00   -0.86293E-10
    0.59707E+02    0.38204E+00   -0.56334E-09
    0.62195E+02    0.37717E+00   -0.43445E-08
    0.64683E+02    0.37257E+00   -0.10479E-08
    0.67171E+02    0.36858E+00   -0.11913E-08
    0.69659E+02    0.36436E+00   -0.99758E-06
    0.72146E+02    0.35519E+00   -0.50672E-05
    0.74634E+02    0.34636E+00    0.33449E-06
    0.77122E+02    0.33478E+00    0.11317E-04
    0.79610E+02    0.32329E+00    0.13918E-03
    0.82098E+02    0.31491E+00    0.99248E-03
    0.84585E+02    0.30575E+00    0.26110E-02
    0.87073E+02    0.29545E+00    0.67834E-02
    0.89561E+02    0.28706E+00    0.18973E-01
    0.92049E+02    0.27036E+00    0.35807E-01
    0.94537E+02    0.24905E+00    0.10937E+00
    0.97024E+02    0.22753E+00    0.17844E+00
    0.99512E+02    0.18670E+00    0.42062E+00
    0.10200E+03    0.16004E+00    0.10000E+01
zone i=     42,T= "1dxhc;t= 0.3000E+03y,z:   1  22"
    0.00000E+00    0.49772E+00   -0.19497E-16
    0.24878E+01    0.48857E+00   -0.51455E-16
    0.49756E+01    0.48206E+00   -0.18491E-15
    0.74634E+01    0.47382E+00   -0.74463E-15
    0.99512E+01    0.46533E+00   -0.19871E-14
    0.12439E+02    0.45802E+00   -0.61668E-14
    0.14927E+02    0.45222E+00   -0.14702E-13
    0.17415E+02    0.44836E+00   -0.18138E-13
    0.19902E+02    0.44520E+00   -0.25751E-13
    0.22390E+02    0.43668E+00   -0.36747E-13
    0.24878E+02    0.42673E+00   -0.67104E-13
    0.27366E+02    0.41745E+00   -0.16457E-12
    0.29854E+02    0.40991E+00   -0.46323E-12
    0.32341E+02    0.39903E+00   -0.99277E-12
    0.34829E+02    0.38088E+00   -0.28264E-11
    0.37317E+02    0.36888E+00   -0.44467E-11
    0.39805E+02    0.35715E+00   -0.74288E-11
    0.42293E+02    0.34603E+00   -0.18875E-10
    0.44780E+02    0.33373E+00   -0.48515E-10
    0.47268E+02    0.32980E+00   -0.96249E-10
    0.49756E+02    0.32591E+00   -0.21974E-09
    0.52244E+02    0.32155E+00   -0.40119E-09
    0.54732E+02    0.30943E+00   -0.59985E-09
    0.57220E+02    0.29943E+00    0.97724E-09
    0.59707E+02    0.28870E+00    0.48522E-08
    0.62195E+02    0.26962E+00    0.11800E-07
    0.64683E+02    0.24088E+00    0.38431E-07
    0.67171E+02    0.21920E+00    0.14431E-06
    0.69659E+02    0.20757E+00    0.46736E-06
    0.72146E+02    0.19968E+00    0.11392E-05
    0.74634E+02    0.18682E+00    0.27773E-05
    0.77122E+02    0.17678E+00    0.67292E-05
    0.79610E+02    0.16999E+00    0.13368E-04
    0.82098E+02    0.16526E+00    0.20829E-04
    0.84585E+02    0.16021E+00    0.21084E-04
    0.87073E+02    0.15309E+00    0.25450E-04
    0.89561E+02    0.13118E+00    0.45629E-04
    0.92049E+02    0.10651E+00    0.10640E-03
    0.94537E+02    0.74833E-01    0.23730E-03
    0.97024E+02    0.53552E-01   -0.10716E-03
    0.99512E+02    0.30847E-01   -0.23320E-03
    0.10200E+03    0.66159E-02   -0.10295E-02
zone i=     42,T= "1dxhc;t= 0.4500E+03y,z:   1   1"
    0.00000E+00    0.50000E+00    0.00000E+00
    0.24878E+01    0.49537E+00    0.21337E-15
    0.49756E+01    0.49243E+00    0.67678E-15
    0.74634E+01    0.48890E+00    0.91263E-15
    0.99512E+01    0.48159E+00    0.30931E-14
    0.12439E+02    0.47221E+00    0.69533E-14
    0.14927E+02    0.46003E+00    0.21514E-13
    0.17415E+02    0.45368E+00    0.51602E-13
    0.19902E+02    0.44957E+00    0.18777E-12
    0.22390E+02    0.44702E+00    0.17431E-12
    0.24878E+02    0.44132E+00    0.78049E-12
    0.27366E+02    0.43498E+00    0.30431E-11
    0.29854E+02    0.43122E+00    0.56832E-11
    0.32341E+02    0.42816E+00    0.19825E-10
    0.34829E+02    0.42517E+00    0.44378E-10
    0.37317E+02    0.42153E+00    0.42635E-10
    0.39805E+02    0.41795E+00    0.13752E-09
    0.42293E+02    0.41430E+00    0.25160E-09
    0.44780E+02    0.41129E+00    0.38782E-09
    0.47268E+02    0.40919E+00    0.10044E-08
    0.49756E+02    0.40510E+00    0.12643E-08
    0.52244E+02    0.39877E+00    0.34503E-08
    0.54732E+02    0.39263E+00    0.12361E-07
    0.57220E+02    0.38706E+00    0.88075E-07
    0.59707E+02    0.38069E+00    0.74154E-06
    0.62195E+02    0.37790E+00    0.49711E-05
    0.64683E+02    0.37459E+00    0.12638E-04
    0.67171E+02    0.36870E+00    0.41366E-04
    0.69659E+02    0.36081E+00    0.14447E-03
    0.72146E+02    0.35467E+00    0.37785E-03
    0.74634E+02    0.35152E+00    0.54129E-03
    0.77122E+02    0.34619E+00    0.10876E-02
    0.79610E+02    0.33981E+00    0.32520E-02
    0.82098E+02    0.33402E+00   -0.10413E-01
    0.84585E+02    0.33661E+00    0.17419E+00
    0.87073E+02    0.34731E+00    0.37606E+00
    0.89561E+02    0.36044E+00    0.53159E+00
    0.92049E+02    0.37079E+00    0.71355E+00
    0.94537E+02    0.38237E+00    0.81684E+00
    0.97024E+02    0.38875E+00    0.87470E+00
    0.99512E+02    0.39972E+00    0.94894E+00
    0.10200E+03    0.40012E+00    0.10000E+01
zone i=     42,T= "1dxhc;t= 0.4500E+03y,z:   1  12"
    0.00000E+00    0.50000E+00    0.00000E+00
    0.24878E+01    0.49716E+00    0.73199E-16
    0.49756E+01    0.49379E+00    0.19110E-15
    0.74634E+01    0.48880E+00    0.60678E-15
    0.99512E+01    0.48124E+00    0.40962E-14
    0.12439E+02    0.47382E+00    0.60246E-14
    0.14927E+02    0.46277E+00    0.13516E-13
    0.17415E+02    0.45458E+00    0.28930E-13
    0.19902E+02    0.44803E+00    0.12089E-12
    0.22390E+02    0.44511E+00    0.61613E-12
    0.24878E+02    0.44319E+00    0.19865E-11
    0.27366E+02    0.43842E+00    0.10606E-10
    0.29854E+02    0.43428E+00    0.30229E-10
    0.32341E+02    0.42674E+00    0.65801E-10
    0.34829E+02    0.42306E+00    0.87279E-10
    0.37317E+02    0.41840E+00    0.42698E-09
    0.39805E+02    0.41509E+00    0.11363E-08
    0.42293E+02    0.41248E+00    0.23535E-08
    0.44780E+02    0.41018E+00    0.54154E-08
    0.47268E+02    0.40743E+00    0.50780E-08
    0.49756E+02    0.40402E+00    0.44514E-08
    0.52244E+02    0.39835E+00    0.26295E-08
    0.54732E+02    0.39178E+00    0.22767E-08
    0.57220E+02    0.38681E+00   -0.15492E-08
    0.59707E+02    0.38194E+00   -0.64728E-08
    0.62195E+02    0.37706E+00   -0.32415E-07
    0.64683E+02    0.37245E+00   -0.10034E-07
    0.67171E+02    0.36844E+00   -0.24276E-06
    0.69659E+02    0.36418E+00   -0.49520E-05
    0.72146E+02    0.35480E+00   -0.17187E-04
    0.74634E+02    0.34565E+00    0.59345E-05
    0.77122E+02    0.33356E+00    0.46722E-04
    0.79610E+02    0.32132E+00    0.39059E-03
    0.82098E+02    0.31216E+00    0.22236E-02
    0.84585E+02    0.30201E+00    0.52334E-02
    0.87073E+02    0.29076E+00    0.11856E-01
    0.89561E+02    0.28194E+00    0.27901E-01
    0.92049E+02    0.26517E+00    0.47684E-01
    0.94537E+02    0.24448E+00    0.12323E+00
    0.97024E+02    0.22392E+00    0.18954E+00
    0.99512E+02    0.18520E+00    0.42562E+00
    0.10200E+03    0.16004E+00    0.10000E+01
zone i=     42,T= "1dxhc;t= 0.4500E+03y,z:   1  22"
    0.00000E+00    0.49772E+00   -0.58861E-15
    0.24878E+01    0.48856E+00   -0.12414E-14
    0.49756E+01    0.48205E+00   -0.39157E-14
    0.74634E+01    0.47381E+00   -0.12104E-13
    0.99512E+01    0.46532E+00   -0.25449E-13
    0.12439E+02    0.45800E+00   -0.62241E-13
    0.14927E+02    0.45220E+00   -0.11940E-12
    0.17415E+02    0.44834E+00   -0.14420E-12
    0.19902E+02    0.44518E+00   -0.19616E-12
    0.22390E+02    0.43666E+00   -0.25606E-12
    0.24878E+02    0.42670E+00   -0.36340E-12
    0.27366E+02    0.41741E+00   -0.52699E-12
    0.29854E+02    0.40987E+00   -0.54794E-12
    0.32341E+02    0.39898E+00    0.17767E-12
    0.34829E+02    0.38083E+00    0.39418E-11
    0.37317E+02    0.36882E+00    0.10462E-10
    0.39805E+02    0.35709E+00    0.36029E-11
    0.42293E+02    0.34596E+00   -0.20628E-10
    0.44780E+02    0.33365E+00   -0.98782E-10
    0.47268E+02    0.32972E+00   -0.25767E-09
    0.49756E+02    0.32583E+00   -0.75556E-09
    0.52244E+02    0.32147E+00   -0.12661E-08
    0.54732E+02    0.30934E+00   -0.47717E-09
    0.57220E+02    0.29933E+00    0.10495E-07
    0.59707E+02    0.28860E+00    0.35921E-07
    0.62195E+02    0.26951E+00    0.86602E-07
    0.64683E+02    0.24075E+00    0.23761E-06
    0.67171E+02    0.21905E+00    0.69373E-06
    0.69659E+02    0.20741E+00    0.17304E-05
    0.72146E+02    0.19952E+00    0.34054E-05
    0.74634E+02    0.18666E+00    0.71725E-05
    0.77122E+02    0.17661E+00    0.15627E-04
    0.79610E+02    0.16983E+00    0.29300E-04
    0.82098E+02    0.16509E+00    0.44690E-04
    0.84585E+02    0.16004E+00    0.47795E-04
    0.87073E+02    0.15293E+00    0.53549E-04
    0.89561E+02    0.13104E+00    0.11230E-03
    0.92049E+02    0.10640E+00    0.21929E-03
    0.94537E+02    0.74770E-01    0.31938E-03
    0.97024E+02    0.53517E-01   -0.16595E-03
    0.99512E+02    0.30831E-01   -0.23742E-03
    0.10200E+03    0.66112E-02   -0.12079E-02
zone i=     42,T= "1dxhc;t= 0.6000E+03y,z:   1   1"
    0.00000E+00    0.50000E+00    0.00000E+00
    0.24878E+01    0.49536E+00    0.13028E-14
    0.49756E+01    0.49242E+00    0.37360E-14
    0.74634E+01    0.48890E+00    0.55502E-14
    0.99512E+01    0.48158E+00    0.15454E-13
    0.12439E+02    0.47220E+00    0.31022E-13
    0.14927E+02    0.46001E+00    0.86645E-13
    0.17415E+02    0.45365E+00    0.22617E-12
    0.19902E+02    0.44955E+00    0.72704E-12
    0.22390E+02    0.44700E+00    0.96432E-12
    0.24878E+02    0.44130E+00    0.42553E-11
    0.27366E+02    0.43495E+00    0.16097E-10
    0.29854E+02    0.43119E+00    0.41090E-10
    0.32341E+02    0.42813E+00    0.14673E-09
    0.34829E+02    0.42514E+00    0.34297E-09
    0.37317E+02    0.42150E+00    0.59006E-09
    0.39805E+02    0.41792E+00    0.14295E-08
    0.42293E+02    0.41427E+00    0.31861E-08
    0.44780E+02    0.41125E+00    0.52526E-08
    0.47268E+02    0.40916E+00    0.10942E-07
    0.49756E+02    0.40507E+00    0.13808E-07
    0.52244E+02    0.39874E+00    0.34982E-07
    0.54732E+02    0.39260E+00    0.10696E-06
    0.57220E+02    0.38704E+00    0.62601E-06
    0.59707E+02    0.38068E+00    0.43332E-05
    0.62195E+02    0.37789E+00    0.24168E-04
    0.64683E+02    0.37459E+00    0.57871E-04
    0.67171E+02    0.36876E+00    0.17163E-03
    0.69659E+02    0.36099E+00    0.55072E-03
    0.72146E+02    0.35499E+00    0.14171E-02
    0.74634E+02    0.35194E+00    0.26106E-02
    0.77122E+02    0.34687E+00    0.55047E-02
    0.79610E+02    0.34125E+00    0.23706E-01
    0.82098E+02    0.33988E+00    0.26121E-01
    0.84585E+02    0.34491E+00    0.29772E+00
    0.87073E+02    0.35711E+00    0.55761E+00
    0.89561E+02    0.36904E+00    0.65031E+00
    0.92049E+02    0.37794E+00    0.78623E+00
    0.94537E+02    0.38761E+00    0.86050E+00
    0.97024E+02    0.39289E+00    0.90532E+00
    0.99512E+02    0.40207E+00    0.96133E+00
    0.10200E+03    0.40012E+00    0.10000E+01
zone i=     42,T= "1dxhc;t= 0.6000E+03y,z:   1  12"
    0.00000E+00    0.50000E+00    0.00000E+00
    0.24878E+01    0.49715E+00    0.95741E-15
    0.49756E+01    0.49379E+00    0.26434E-14
    0.74634E+01    0.48880E+00    0.75019E-14
    0.99512E+01    0.48123E+00    0.45375E-13
    0.12439E+02    0.47381E+00    0.68316E-13
    0.14927E+02    0.46276E+00    0.15184E-12
    0.17415E+02    0.45456E+00    0.31131E-12
    0.19902E+02    0.44801E+00    0.11790E-11
    0.22390E+02    0.44509E+00    0.54594E-11
    0.24878E+02    0.44316E+00    0.15284E-10
    0.27366E+02    0.43840E+00    0.70787E-10
    0.29854E+02    0.43425E+00    0.17635E-09
    0.32341E+02    0.42671E+00    0.35643E-09
    0.34829E+02    0.42303E+00    0.46328E-09
    0.37317E+02    0.41837E+00    0.19725E-08
    0.39805E+02    0.41506E+00    0.46268E-08
    0.42293E+02    0.41245E+00    0.91172E-08
    0.44780E+02    0.41015E+00    0.20021E-07
    0.47268E+02    0.40740E+00    0.18475E-07
    0.49756E+02    0.40399E+00    0.16524E-07
    0.52244E+02    0.39832E+00    0.98435E-08
    0.54732E+02    0.39175E+00    0.93221E-08
    0.57220E+02    0.38678E+00   -0.81038E-08
    0.59707E+02    0.38191E+00   -0.27873E-07
    0.62195E+02    0.37704E+00   -0.11829E-06
    0.64683E+02    0.37242E+00   -0.27886E-07
    0.67171E+02    0.36840E+00   -0.12555E-05
    0.69659E+02    0.36410E+00   -0.12433E-04
    0.72146E+02    0.35455E+00   -0.32184E-04
    0.74634E+02    0.34513E+00    0.24632E-04
    0.77122E+02    0.33261E+00    0.11575E-03
    0.79610E+02    0.31976E+00    0.72078E-03
    0.82098E+02    0.30999E+00    0.34441E-02
    0.84585E+02    0.29919E+00    0.75229E-02
    0.87073E+02    0.28745E+00    0.15669E-01
    0.89561E+02    0.27852E+00    0.33560E-01
    0.92049E+02    0.26194E+00    0.54806E-01
    0.94537E+02    0.24173E+00    0.13048E+00
    0.97024E+02    0.22176E+00    0.19515E+00
    0.99512E+02    0.18430E+00    0.42784E+00
    0.10200E+03    0.16004E+00    0.10000E+01
zone i=     42,T= "1dxhc;t= 0.6000E+03y,z:   1  22"
    0.00000E+00    0.49772E+00   -0.39553E-14
    0.24878E+01    0.48856E+00   -0.63562E-14
    0.49756E+01    0.48204E+00   -0.17193E-13
    0.74634E+01    0.47380E+00   -0.37805E-13
    0.99512E+01    0.46531E+00   -0.54043E-13
    0.12439E+02    0.45799E+00   -0.72425E-13
    0.14927E+02    0.45218E+00   -0.35931E-13
    0.17415E+02    0.44832E+00    0.96500E-15
    0.19902E+02    0.44516E+00    0.10093E-12
    0.22390E+02    0.43664E+00    0.33436E-12
    0.24878E+02    0.42668E+00    0.11751E-11
    0.27366E+02    0.41739E+00    0.42497E-11
    0.29854E+02    0.40985E+00    0.13811E-10
    0.32341E+02    0.39895E+00    0.31426E-10
    0.34829E+02    0.38079E+00    0.87512E-10
    0.37317E+02    0.36878E+00    0.15017E-09
    0.39805E+02    0.35704E+00    0.18831E-09
    0.42293E+02    0.34591E+00    0.27398E-09
    0.44780E+02    0.33360E+00    0.34654E-09
    0.47268E+02    0.32967E+00    0.28019E-09
    0.49756E+02    0.32578E+00   -0.33205E-09
    0.52244E+02    0.32141E+00   -0.34369E-09
    0.54732E+02    0.30928E+00    0.54083E-08
    0.57220E+02    0.29927E+00    0.37517E-07
    0.59707E+02    0.28853E+00    0.11384E-06
    0.62195E+02    0.26943E+00    0.27430E-06
    0.64683E+02    0.24065E+00    0.66926E-06
    0.67171E+02    0.21895E+00    0.16423E-05
    0.69659E+02    0.20730E+00    0.34324E-05
    0.72146E+02    0.19940E+00    0.59243E-05
    0.74634E+02    0.18654E+00    0.11365E-04
    0.77122E+02    0.17649E+00    0.23177E-04
    0.79610E+02    0.16971E+00    0.42383E-04
    0.82098E+02    0.16498E+00    0.64951E-04
    0.84585E+02    0.15993E+00    0.72789E-04
    0.87073E+02    0.15282E+00    0.79230E-04
    0.89561E+02    0.13094E+00    0.16628E-03
    0.92049E+02    0.10632E+00    0.28893E-03
    0.94537E+02    0.74721E-01    0.36324E-03
    0.97024E+02    0.53484E-01   -0.16381E-03
    0.99512E+02    0.30813E-01   -0.21211E-03
    0.10200E+03    0.66071E-02   -0.12027E-02
zone i=     42,T= "1dxhc;t= 0.7500E+03y,z:   1   1"
    0.00000E+00    0.50000E+00    0.00000E+00
    0.24878E+01    0.49536E+00   -0.43297E-14
    0.49756E+01    0.49242E+00   -0.14341E-13
    0.74634E+01    0.48890E+00   -0.14165E-13
    0.99512E+01    0.48157E+00   -0.54632E-13
    0.12439E+02    0.47219E+00   -0.10392E-12
    0.14927E+02    0.46000E+00   -0.24998E-12
    0.17415E+02    0.45364E+00   -0.24333E-12
    0.19902E+02    0.44953E+00   -0.24136E-12
    0.22390E+02    0.44698E+00    0.33240E-11
    0.24878E+02    0.44128E+00    0.15752E-10
    0.27366E+02    0.43494E+00    0.69250E-10
    0.29854E+02    0.43118E+00    0.23516E-09
    0.32341E+02    0.42811E+00    0.80906E-09
    0.34829E+02    0.42512E+00    0.18391E-08
    0.37317E+02    0.42148E+00    0.39653E-08
    0.39805E+02    0.41790E+00    0.85641E-08
    0.42293E+02    0.41426E+00    0.19177E-07
    0.44780E+02    0.41124E+00    0.32302E-07
    0.47268E+02    0.40915E+00    0.61327E-07
    0.49756E+02    0.40506E+00    0.78043E-07
    0.52244E+02    0.39873E+00    0.18920E-06
    0.54732E+02    0.39260E+00    0.51880E-06
    0.57220E+02    0.38704E+00    0.26429E-05
    0.59707E+02    0.38069E+00    0.15866E-04
    0.62195E+02    0.37792E+00    0.76830E-04
    0.64683E+02    0.37464E+00    0.17705E-03
    0.67171E+02    0.36887E+00    0.48906E-03
    0.69659E+02    0.36123E+00    0.14403E-02
    0.72146E+02    0.35540E+00    0.34569E-02
    0.74634E+02    0.35247E+00    0.58887E-02
    0.77122E+02    0.34765E+00    0.10298E-01
    0.79610E+02    0.34311E+00    0.28394E-01
    0.82098E+02    0.34608E+00    0.19008E+00
    0.84585E+02    0.35199E+00    0.38713E+00
    0.87073E+02    0.36397E+00    0.64709E+00
    0.89561E+02    0.37496E+00    0.72942E+00
    0.92049E+02    0.38275E+00    0.83258E+00
    0.94537E+02    0.39109E+00    0.88774E+00
    0.97024E+02    0.39561E+00    0.92379E+00
    0.99512E+02    0.40360E+00    0.96941E+00
    0.10200E+03    0.40012E+00    0.10000E+01
zone i=     42,T= "1dxhc;t= 0.7500E+03y,z:   1  12"
    0.00000E+00    0.50000E+00    0.00000E+00
    0.24878E+01    0.49715E+00    0.59443E-14
    0.49756E+01    0.49379E+00    0.17207E-13
    0.74634E+01    0.48879E+00    0.45387E-13
    0.99512E+01    0.48122E+00    0.25397E-12
    0.12439E+02    0.47381E+00    0.39487E-12
    0.14927E+02    0.46275E+00    0.86671E-12
    0.17415E+02    0.45455E+00    0.17127E-11
    0.19902E+02    0.44799E+00    0.59723E-11
    0.22390E+02    0.44508E+00    0.25266E-10
    0.24878E+02    0.44315E+00    0.63521E-10
    0.27366E+02    0.43838E+00    0.26110E-09
    0.29854E+02    0.43423E+00    0.58604E-09
    0.32341E+02    0.42670E+00    0.11225E-08
    0.34829E+02    0.42301E+00    0.14495E-08
    0.37317E+02    0.41836E+00    0.54839E-08
    0.39805E+02    0.41505E+00    0.11699E-07
    0.42293E+02    0.41243E+00    0.22196E-07
    0.44780E+02    0.41014E+00    0.46679E-07
    0.47268E+02    0.40739E+00    0.42649E-07
    0.49756E+02    0.40398E+00    0.38482E-07
    0.52244E+02    0.39831E+00    0.22995E-07
    0.54732E+02    0.39174E+00    0.23995E-07
    0.57220E+02    0.38677E+00   -0.23361E-07
    0.59707E+02    0.38191E+00   -0.72489E-07
    0.62195E+02    0.37704E+00   -0.28418E-06
    0.64683E+02    0.37242E+00   -0.51428E-07
    0.67171E+02    0.36839E+00   -0.33884E-05
    0.69659E+02    0.36406E+00   -0.21812E-04
    0.72146E+02    0.35436E+00   -0.43634E-04
    0.74634E+02    0.34472E+00    0.58753E-04
    0.77122E+02    0.33182E+00    0.21191E-03
    0.79610E+02    0.31847E+00    0.10687E-02
    0.82098E+02    0.30823E+00    0.44594E-02
    0.84585E+02    0.29699E+00    0.92467E-02
    0.87073E+02    0.28502E+00    0.18292E-01
    0.89561E+02    0.27612E+00    0.37096E-01
    0.92049E+02    0.25976E+00    0.59201E-01
    0.94537E+02    0.23990E+00    0.13464E+00
    0.97024E+02    0.22034E+00    0.19830E+00
    0.99512E+02    0.18371E+00    0.42888E+00
    0.10200E+03    0.16004E+00    0.10000E+01
zone i=     42,T= "1dxhc;t= 0.7500E+03y,z:   1  22"
    0.00000E+00    0.49772E+00   -0.66766E-14
    0.24878E+01    0.48856E+00   -0.36207E-14
    0.49756E+01    0.48204E+00    0.31290E-14
    0.74634E+01    0.47380E+00    0.64283E-13
    0.99512E+01    0.46530E+00    0.21977E-12
    0.12439E+02    0.45798E+00    0.71056E-12
    0.14927E+02    0.45217E+00    0.16603E-11
    0.17415E+02    0.44831E+00    0.22731E-11
    0.19902E+02    0.44515E+00    0.36954E-11
    0.22390E+02    0.43662E+00    0.60566E-11
    0.24878E+02    0.42666E+00    0.12239E-10
    0.27366E+02    0.41737E+00    0.29574E-10
    0.29854E+02    0.40983E+00    0.73100E-10
    0.32341E+02    0.39893E+00    0.14228E-09
    0.34829E+02    0.38076E+00    0.33790E-09
    0.37317E+02    0.36875E+00    0.54272E-09
    0.39805E+02    0.35701E+00    0.76569E-09
    0.42293E+02    0.34588E+00    0.12701E-08
    0.44780E+02    0.33356E+00    0.19266E-08
    0.47268E+02    0.32963E+00    0.24580E-08
    0.49756E+02    0.32573E+00    0.26988E-08
    0.52244E+02    0.32137E+00    0.46515E-08
    0.54732E+02    0.30923E+00    0.19442E-07
    0.57220E+02    0.29922E+00    0.80330E-07
    0.59707E+02    0.28847E+00    0.23100E-06
    0.62195E+02    0.26937E+00    0.55707E-06
    0.64683E+02    0.24058E+00    0.12563E-05
    0.67171E+02    0.21887E+00    0.27296E-05
    0.69659E+02    0.20722E+00    0.50525E-05
    0.72146E+02    0.19932E+00    0.80151E-05
    0.74634E+02    0.18645E+00    0.14384E-04
    0.77122E+02    0.17640E+00    0.28021E-04
    0.79610E+02    0.16962E+00    0.50632E-04
    0.82098E+02    0.16489E+00    0.78259E-04
    0.84585E+02    0.15984E+00    0.90559E-04
    0.87073E+02    0.15273E+00    0.98577E-04
    0.89561E+02    0.13087E+00    0.20120E-03
    0.92049E+02    0.10627E+00    0.32814E-03
    0.94537E+02    0.74681E-01    0.39097E-03
    0.97024E+02    0.53456E-01   -0.14406E-03
    0.99512E+02    0.30797E-01   -0.18777E-03
    0.10200E+03    0.66034E-02   -0.11604E-02
zone i=     42,T= "1dxhc;t= 0.9000E+03y,z:   1   1"
    0.00000E+00    0.50000E+00    0.00000E+00
    0.24878E+01    0.49536E+00   -0.61740E-13
    0.49756E+01    0.49242E+00   -0.18212E-12