title="2d K section "
variables="x","z","Kx","logKx","Kz","logKz","porosity"
zone i=    22, j=    42,T="Initial K at t=0"
   0.0000000E+00   0.0000000E+00   0.3024136E-04  -0.4519399E+01   0.3024136E-04  -0.4519399E+01   0.3000000E+00
   0.0000000E+00   0.9761905E+00   0.2093475E-04  -0.4679132E+01   0.2093475E-04  -0.4679132E+01   0.3000000E+00
   0.0000000E+00   0.1952381E+01   0.3480672E-04  -0.4458337E+01   0.3480672E-04  -0.4458337E+01   0.3000000E+00
   0.0000000E+00   0.2928571E+01   0.1584748E-04  -0.4800040E+01   0.1584748E-04  -0.4800040E+01   0.3000000E+00
   0.0000000E+00   0.3904762E+01   0.4826519E-04  -0.4316366E+01   0.4826519E-04  -0.4316366E+01   0.3000000E+00
   0.0000000E+00   0.4880952E+01   0.9064135E-04  -0.4042674E+01   0.9064135E-04  -0.4042674E+01   0.3000000E+00
   0.0000000E+00   0.5857143E+01   0.1457672E-03  -0.3836340E+01   0.1457672E-03  -0.3836340E+01   0.3000000E+00
   0.0000000E+00   0.6833333E+01   0.2943032E-03  -0.3531205E+01   0.2943032E-03  -0.3531205E+01   0.3000000E+00
   0.0000000E+00   0.7809524E+01   0.2311601E-03  -0.3636087E+01   0.2311601E-03  -0.3636087E+01   0.3000000E+00
   0.0000000E+00   0.8785714E+01   0.3569500E-04  -0.4447393E+01   0.3569500E-04  -0.4447393E+01   0.3000000E+00
   0.0000000E+00   0.9761905E+01   0.3491130E-04  -0.4457034E+01   0.3491130E-04  -0.4457034E+01   0.3000000E+00
   0.0000000E+00   0.1073810E+02   0.4193689E-07  -0.7377404E+01   0.4193689E-07  -0.7377404E+01   0.3000000E+00
   0.0000000E+00   0.1171429E+02   0.2415438E-07  -0.7617004E+01   0.2415438E-07  -0.7617004E+01   0.3000000E+00
   0.0000000E+00   0.1269048E+02   0.1432299E-07  -0.7843966E+01   0.1432299E-07  -0.7843966E+01   0.3000000E+00
   0.0000000E+00   0.1366667E+02   0.7950865E-07  -0.7099586E+01   0.7950865E-07  -0.7099586E+01   0.3000000E+00
   0.0000000E+00   0.1464286E+02   0.2686114E-06  -0.6570876E+01   0.2686114E-06  -0.6570876E+01   0.3000000E+00
   0.0000000E+00   0.1561905E+02   0.1979859E-04  -0.4703366E+01   0.1979859E-04  -0.4703366E+01   0.3000000E+00
   0.0000000E+00   0.1659524E+02   0.2172385E-04  -0.4663063E+01   0.2172385E-04  -0.4663063E+01   0.3000000E+00
   0.0000000E+00   0.1757143E+02   0.2251340E-04  -0.4647559E+01   0.2251340E-04  -0.4647559E+01   0.3000000E+00
   0.0000000E+00   0.1854762E+02   0.2084701E-04  -0.4680956E+01   0.2084701E-04  -0.4680956E+01   0.3000000E+00
   0.0000000E+00   0.1952381E+02   0.1827092E-04  -0.4738240E+01   0.1827092E-04  -0.4738240E+01   0.3000000E+00
   0.0000000E+00   0.2050000E+02   0.1827092E-04  -0.4738240E+01   0.1827092E-04  -0.4738240E+01   0.3000000E+00
   0.2487805E+01   0.0000000E+00   0.6877983E-04  -0.4162539E+01   0.6877983E-04  -0.4162539E+01   0.3000000E+00
   0.2487805E+01   0.9761905E+00   0.2029167E-04  -0.4692682E+01   0.2029167E-04  -0.4692682E+01   0.3000000E+00
   0.2487805E+01   0.1952381E+01   0.2676541E-04  -0.4572426E+01   0.2676541E-04  -0.4572426E+01   0.3000000E+00
   0.2487805E+01   0.2928571E+01   0.2227156E-04  -0.4652249E+01   0.2227156E-04  -0.4652249E+01   0.3000000E+00
   0.2487805E+01   0.3904762E+01   0.1712279E-04  -0.4766425E+01   0.1712279E-04  -0.4766425E+01   0.3000000E+00
   0.2487805E+01   0.4880952E+01   0.4155885E-04  -0.4381336E+01   0.4155885E-04  -0.4381336E+01   0.3000000E+00
   0.2487805E+01   0.5857143E+01   0.6562197E-04  -0.4182951E+01   0.6562197E-04  -0.4182951E+01   0.3000000E+00
   0.2487805E+01   0.6833333E+01   0.1152623E-03  -0.3938313E+01   0.1152623E-03  -0.3938313E+01   0.3000000E+00
   0.2487805E+01   0.7809524E+01   0.4988950E-04  -0.4301991E+01   0.4988950E-04  -0.4301991E+01   0.3000000E+00
   0.2487805E+01   0.8785714E+01   0.4983964E-04  -0.4302425E+01   0.4983964E-04  -0.4302425E+01   0.3000000E+00
   0.2487805E+01   0.9761905E+01   0.2915745E-04  -0.4535250E+01   0.2915745E-04  -0.4535250E+01   0.3000000E+00
   0.2487805E+01   0.1073810E+02   0.2261619E-07  -0.7645581E+01   0.2261619E-07  -0.7645581E+01   0.3000000E+00
   0.2487805E+01   0.1171429E+02   0.3317066E-07  -0.7479246E+01   0.3317066E-07  -0.7479246E+01   0.3000000E+00
   0.2487805E+01   0.1269048E+02   0.3241644E-07  -0.7489235E+01   0.3241644E-07  -0.7489235E+01   0.3000000E+00
   0.2487805E+01   0.1366667E+02   0.3748219E-07  -0.7426175E+01   0.3748219E-07  -0.7426175E+01   0.3000000E+00
   0.2487805E+01   0.1464286E+02   0.1910998E-04  -0.4718740E+01   0.1910998E-04  -0.4718740E+01   0.3000000E+00
   0.2487805E+01   0.1561905E+02   0.1747569E-04  -0.4757566E+01   0.1747569E-04  -0.4757566E+01   0.3000000E+00
   0.2487805E+01   0.1659524E+02   0.2680023E-04  -0.4571861E+01   0.2680023E-04  -0.4571861E+01   0.3000000E+00
   0.2487805E+01   0.1757143E+02   0.3286508E-04  -0.4483265E+01   0.3286508E-04  -0.4483265E+01   0.3000000E+00
   0.2487805E+01   0.1854762E+02   0.5857515E-04  -0.4232287E+01   0.5857515E-04  -0.4232287E+01   0.3000000E+00
   0.2487805E+01   0.1952381E+02   0.2763576E-04  -0.4558529E+01   0.2763576E-04  -0.4558529E+01   0.3000000E+00
   0.2487805E+01   0.2050000E+02   0.2763576E-04  -0.4558529E+01   0.2763576E-04  -0.4558529E+01   0.3000000E+00
   0.4975610E+01   0.0000000E+00   0.5176481E-04  -0.4285965E+01   0.5176481E-04  -0.4285965E+01   0.3000000E+00
   0.4975610E+01   0.9761905E+00   0.9695972E-05  -0.5013409E+01   0.9695972E-05  -0.5013409E+01   0.3000000E+00
   0.4975610E+01   0.1952381E+01   0.8339561E-05  -0.5078857E+01   0.8339561E-05  -0.5078857E+01   0.3000000E+00
   0.4975610E+01   0.2928571E+01   0.1942791E-04  -0.4711574E+01   0.1942791E-04  -0.4711574E+01   0.3000000E+00
   0.4975610E+01   0.3904762E+01   0.1851925E-04  -0.4732377E+01   0.1851925E-04  -0.4732377E+01   0.3000000E+00
   0.4975610E+01   0.4880952E+01   0.1669001E-04  -0.4777543E+01   0.1669001E-04  -0.4777543E+01   0.3000000E+00
   0.4975610E+01   0.5857143E+01   0.3690734E-04  -0.4432887E+01   0.3690734E-04  -0.4432887E+01   0.3000000E+00
   0.4975610E+01   0.6833333E+01   0.5067388E-04  -0.4295216E+01   0.5067388E-04  -0.4295216E+01   0.3000000E+00
   0.4975610E+01   0.7809524E+01   0.5595851E-04  -0.4252134E+01   0.5595851E-04  -0.4252134E+01   0.3000000E+00
   0.4975610E+01   0.8785714E+01   0.3435373E-04  -0.4464026E+01   0.3435373E-04  -0.4464026E+01   0.3000000E+00
   0.4975610E+01   0.9761905E+01   0.1582373E-04  -0.4800691E+01   0.1582373E-04  -0.4800691E+01   0.3000000E+00
   0.4975610E+01   0.1073810E+02   0.2899913E-07  -0.7537615E+01   0.2899913E-07  -0.7537615E+01   0.3000000E+00
   0.4975610E+01   0.1171429E+02   0.6939854E-07  -0.7158650E+01   0.6939854E-07  -0.7158650E+01   0.3000000E+00
   0.4975610E+01   0.1269048E+02   0.4667767E-07  -0.7330891E+01   0.4667767E-07  -0.7330891E+01   0.3000000E+00
   0.4975610E+01   0.1366667E+02   0.6641121E-07  -0.7177759E+01   0.6641121E-07  -0.7177759E+01   0.3000000E+00
   0.4975610E+01   0.1464286E+02   0.3159853E-04  -0.4500333E+01   0.3159853E-04  -0.4500333E+01   0.3000000E+00
   0.4975610E+01   0.1561905E+02   0.2982391E-04  -0.4525435E+01   0.2982391E-04  -0.4525435E+01   0.3000000E+00
   0.4975610E+01   0.1659524E+02   0.2705064E-04  -0.4567823E+01   0.2705064E-04  -0.4567823E+01   0.3000000E+00
   0.4975610E+01   0.1757143E+02   0.2358971E-04  -0.4627277E+01   0.2358971E-04  -0.4627277E+01   0.3000000E+00
   0.4975610E+01   0.1854762E+02   0.3218532E-04  -0.4492342E+01   0.3218532E-04  -0.4492342E+01   0.3000000E+00
   0.4975610E+01   0.1952381E+02   0.2374354E-04  -0.4624455E+01   0.2374354E-04  -0.4624455E+01   0.3000000E+00
   0.4975610E+01   0.2050000E+02   0.2374354E-04  -0.4624455E+01   0.2374354E-04  -0.4624455E+01   0.3000000E+00
   0.7463415E+01   0.0000000E+00   0.1663835E-04  -0.4778890E+01   0.1663835E-04  -0.4778890E+01   0.3000000E+00
   0.7463415E+01   0.9761905E+00   0.9670795E-05  -0.5014538E+01   0.9670795E-05  -0.5014538E+01   0.3000000E+00
   0.7463415E+01   0.1952381E+01   0.3812978E-05  -0.5418736E+01   0.3812978E-05  -0.5418736E+01   0.3000000E+00
   0.7463415E+01   0.2928571E+01   0.9972293E-05  -0.5001205E+01   0.9972293E-05  -0.5001205E+01   0.3000000E+00
   0.7463415E+01   0.3904762E+01   0.1518200E-04  -0.4818671E+01   0.1518200E-04  -0.4818671E+01   0.3000000E+00
   0.7463415E+01   0.4880952E+01   0.8318738E-05  -0.5079943E+01   0.8318738E-05  -0.5079943E+01   0.3000000E+00
   0.7463415E+01   0.5857143E+01   0.2523446E-04  -0.4598006E+01   0.2523446E-04  -0.4598006E+01   0.3000000E+00
   0.7463415E+01   0.6833333E+01   0.3247630E-04  -0.4488433E+01   0.3247630E-04  -0.4488433E+01   0.3000000E+00
   0.7463415E+01   0.7809524E+01   0.2362040E-04  -0.4626713E+01   0.2362040E-04  -0.4626713E+01   0.3000000E+00
   0.7463415E+01   0.8785714E+01   0.2395341E-04  -0.4620633E+01   0.2395341E-04  -0.4620633E+01   0.3000000E+00
   0.7463415E+01   0.9761905E+01   0.1207951E-04  -0.4917951E+01   0.1207951E-04  -0.4917951E+01   0.3000000E+00
   0.7463415E+01   0.1073810E+02   0.2825770E-07  -0.7548863E+01   0.2825770E-07  -0.7548863E+01   0.3000000E+00
   0.7463415E+01   0.1171429E+02   0.6225045E-07  -0.7205857E+01   0.6225045E-07  -0.7205857E+01   0.3000000E+00
   0.7463415E+01   0.1269048E+02   0.7228133E-07  -0.7140974E+01   0.7228133E-07  -0.7140974E+01   0.3000000E+00
   0.7463415E+01   0.1366667E+02   0.2349919E-07  -0.7628947E+01   0.2349919E-07  -0.7628947E+01   0.3000000E+00
   0.7463415E+01   0.1464286E+02   0.9069576E-04  -0.4042413E+01   0.9069576E-04  -0.4042413E+01   0.3000000E+00
   0.7463415E+01   0.1561905E+02   0.6549086E-04  -0.4183819E+01   0.6549086E-04  -0.4183819E+01   0.3000000E+00
   0.7463415E+01   0.1659524E+02   0.2575968E-04  -0.4589060E+01   0.2575968E-04  -0.4589060E+01   0.3000000E+00
   0.7463415E+01   0.1757143E+02   0.2935053E-04  -0.4532384E+01   0.2935053E-04  -0.4532384E+01   0.3000000E+00
   0.7463415E+01   0.1854762E+02   0.1202167E-04  -0.4920035E+01   0.1202167E-04  -0.4920035E+01   0.3000000E+00
   0.7463415E+01   0.1952381E+02   0.2663192E-04  -0.4574597E+01   0.2663192E-04  -0.4574597E+01   0.3000000E+00
   0.7463415E+01   0.2050000E+02   0.2663192E-04  -0.4574597E+01   0.2663192E-04  -0.4574597E+01   0.3000000E+00
   0.9951220E+01   0.0000000E+00   0.1037927E-04  -0.4983833E+01   0.1037927E-04  -0.4983833E+01   0.3000000E+00
   0.9951220E+01   0.9761905E+00   0.4137164E-05  -0.5383297E+01   0.4137164E-05  -0.5383297E+01   0.3000000E+00
   0.9951220E+01   0.1952381E+01   0.7290780E-05  -0.5137226E+01   0.7290780E-05  -0.5137226E+01   0.3000000E+00
   0.9951220E+01   0.2928571E+01   0.6464402E-05  -0.5189472E+01   0.6464402E-05  -0.5189472E+01   0.3000000E+00
   0.9951220E+01   0.3904762E+01   0.1782159E-04  -0.4749054E+01   0.1782159E-04  -0.4749054E+01   0.3000000E+00
   0.9951220E+01   0.4880952E+01   0.1614339E-04  -0.4792005E+01   0.1614339E-04  -0.4792005E+01   0.3000000E+00
   0.9951220E+01   0.5857143E+01   0.2024101E-04  -0.4693768E+01   0.2024101E-04  -0.4693768E+01   0.3000000E+00
   0.9951220E+01   0.6833333E+01   0.2007370E-04  -0.4697373E+01   0.2007370E-04  -0.4697373E+01   0.3000000E+00
   0.9951220E+01   0.7809524E+01   0.2073474E-04  -0.4683301E+01   0.2073474E-04  -0.4683301E+01   0.3000000E+00
   0.9951220E+01   0.8785714E+01   0.1735552E-04  -0.4760562E+01   0.1735552E-04  -0.4760562E+01   0.3000000E+00
   0.9951220E+01   0.9761905E+01   0.1578106E-04  -0.4801864E+01   0.1578106E-04  -0.4801864E+01   0.3000000E+00
   0.9951220E+01   0.1073810E+02   0.7787195E-07  -0.7108619E+01   0.7787195E-07  -0.7108619E+01   0.3000000E+00
   0.9951220E+01   0.1171429E+02   0.6123175E-07  -0.7213023E+01   0.6123175E-07  -0.7213023E+01   0.3000000E+00
   0.9951220E+01   0.1269048E+02   0.1953614E-07  -0.7709161E+01   0.1953614E-07  -0.7709161E+01   0.3000000E+00
   0.9951220E+01   0.1366667E+02   0.1382344E-07  -0.7859384E+01   0.1382344E-07  -0.7859384E+01   0.3000000E+00
   0.9951220E+01   0.1464286E+02   0.2834145E-03  -0.3547578E+01   0.2834145E-03  -0.3547578E+01   0.3000000E+00
   0.9951220E+01   0.1561905E+02   0.1380355E-03  -0.3860009E+01   0.1380355E-03  -0.3860009E+01   0.3000000E+00
   0.9951220E+01   0.1659524E+02   0.6211643E-04  -0.4206793E+01   0.6211643E-04  -0.4206793E+01   0.3000000E+00
   0.9951220E+01   0.1757143E+02   0.3311249E-04  -0.4480008E+01   0.3311249E-04  -0.4480008E+01   0.3000000E+00
   0.9951220E+01   0.1854762E+02   0.3462620E-04  -0.4460595E+01   0.3462620E-04  -0.4460595E+01   0.3000000E+00
   0.9951220E+01   0.1952381E+02   0.3440186E-04  -0.4463418E+01   0.3440186E-04  -0.4463418E+01   0.3000000E+00
   0.9951220E+01   0.2050000E+02   0.3440186E-04  -0.4463418E+01   0.3440186E-04  -0.4463418E+01   0.3000000E+00
   0.1243902E+02   0.0000000E+00   0.8886298E-05  -0.5051279E+01   0.8886298E-05  -0.5051279E+01   0.3000000E+00
   0.1243902E+02   0.9761905E+00   0.3597397E-05  -0.5444012E+01   0.3597397E-05  -0.5444012E+01   0.3000000E+00
   0.1243902E+02   0.1952381E+01   0.5109546E-05  -0.5291618E+01   0.5109546E-05  -0.5291618E+01   0.3000000E+00
   0.1243902E+02   0.2928571E+01   0.7931249E-05  -0.5100658E+01   0.7931249E-05  -0.5100658E+01   0.3000000E+00
   0.1243902E+02   0.3904762E+01   0.1932328E-04  -0.4713919E+01   0.1932328E-04  -0.4713919E+01   0.3000000E+00
   0.1243902E+02   0.4880952E+01   0.1920001E-04  -0.4716699E+01   0.1920001E-04  -0.4716699E+01   0.3000000E+00
   0.1243902E+02   0.5857143E+01   0.1605966E-04  -0.4794264E+01   0.1605966E-04  -0.4794264E+01   0.3000000E+00
   0.1243902E+02   0.6833333E+01   0.1846747E-04  -0.4733593E+01   0.1846747E-04  -0.4733593E+01   0.3000000E+00
   0.1243902E+02   0.7809524E+01   0.1306335E-04  -0.4883945E+01   0.1306335E-04  -0.4883945E+01   0.3000000E+00
   0.1243902E+02   0.8785714E+01   0.1213399E-04  -0.4915996E+01   0.1213399E-04  -0.4915996E+01   0.3000000E+00
   0.1243902E+02   0.9761905E+01   0.9308338E-05  -0.5031128E+01   0.9308338E-05  -0.5031128E+01   0.3000000E+00
   0.1243902E+02   0.1073810E+02   0.3381758E-06  -0.6470857E+01   0.3381758E-06  -0.6470857E+01   0.3000000E+00
   0.1243902E+02   0.1171429E+02   0.1720639E-06  -0.6764310E+01   0.1720639E-06  -0.6764310E+01   0.3000000E+00
   0.1243902E+02   0.1269048E+02   0.7075094E-07  -0.7150268E+01   0.7075094E-07  -0.7150268E+01   0.3000000E+00
   0.1243902E+02   0.1366667E+02   0.3527469E-07  -0.7452537E+01   0.3527469E-07  -0.7452537E+01   0.3000000E+00
   0.1243902E+02   0.1464286E+02   0.4457287E-03  -0.3350929E+01   0.4457287E-03  -0.3350929E+01   0.3000000E+00
   0.1243902E+02   0.1561905E+02   0.7263962E-04  -0.4138826E+01   0.7263962E-04  -0.4138826E+01   0.3000000E+00
   0.1243902E+02   0.1659524E+02   0.4736154E-04  -0.4324574E+01   0.4736154E-04  -0.4324574E+01   0.3000000E+00
   0.1243902E+02   0.1757143E+02   0.4162956E-04  -0.4380598E+01   0.4162956E-04  -0.4380598E+01   0.3000000E+00
   0.1243902E+02   0.1854762E+02   0.6753261E-04  -0.4170486E+01   0.6753261E-04  -0.4170486E+01   0.3000000E+00
   0.1243902E+02   0.1952381E+02   0.7533995E-04  -0.4122975E+01   0.7533995E-04  -0.4122975E+01   0.3000000E+00
   0.1243902E+02   0.2050000E+02   0.7533995E-04  -0.4122975E+01   0.7533995E-04  -0.4122975E+01   0.3000000E+00
   0.1492683E+02   0.0000000E+00   0.1745473E-04  -0.4758087E+01   0.1745473E-04  -0.4758087E+01   0.3000000E+00
   0.1492683E+02   0.9761905E+00   0.9085780E-05  -0.5041638E+01   0.9085780E-05  -0.5041638E+01   0.3000000E+00
   0.1492683E+02   0.1952381E+01   0.8155647E-05  -0.5088542E+01   0.8155647E-05  -0.5088542E+01   0.3000000E+00
   0.1492683E+02   0.2928571E+01   0.7380272E-05  -0.5131928E+01   0.7380272E-05  -0.5131928E+01   0.3000000E+00
   0.1492683E+02   0.3904762E+01   0.1328865E-04  -0.4876519E+01   0.1328865E-04  -0.4876519E+01   0.3000000E+00
   0.1492683E+02   0.4880952E+01   0.1270138E-04  -0.4896149E+01   0.1270138E-04  -0.4896149E+01   0.3000000E+00
   0.1492683E+02   0.5857143E+01   0.1519263E-04  -0.4818367E+01   0.1519263E-04  -0.4818367E+01   0.3000000E+00
   0.1492683E+02   0.6833333E+01   0.4521417E-04  -0.4344725E+01   0.4521417E-04  -0.4344725E+01   0.3000000E+00
   0.1492683E+02   0.7809524E+01   0.2659732E-04  -0.4575162E+01   0.2659732E-04  -0.4575162E+01   0.3000000E+00
   0.1492683E+02   0.8785714E+01   0.1102660E-04  -0.4957558E+01   0.1102660E-04  -0.4957558E+01   0.3000000E+00
   0.1492683E+02   0.9761905E+01   0.9098509E-05  -0.5041030E+01   0.9098509E-05  -0.5041030E+01   0.3000000E+00
   0.1492683E+02   0.1073810E+02   0.1464327E-06  -0.6834362E+01   0.1464327E-06  -0.6834362E+01   0.3000000E+00
   0.1492683E+02   0.1171429E+02   0.2292850E-06  -0.6639624E+01   0.2292850E-06  -0.6639624E+01   0.3000000E+00
   0.1492683E+02   0.1269048E+02   0.1730301E-06  -0.6761878E+01   0.1730301E-06  -0.6761878E+01   0.3000000E+00
   0.1492683E+02   0.1366667E+02   0.7433381E-07  -0.7128814E+01   0.7433381E-07  -0.7128814E+01   0.3000000E+00
   0.1492683E+02   0.1464286E+02   0.8462338E-04  -0.4072510E+01   0.8462338E-04  -0.4072510E+01   0.3000000E+00
   0.1492683E+02   0.1561905E+02   0.5786488E-04  -0.4237585E+01   0.5786488E-04  -0.4237585E+01   0.3000000E+00
   0.1492683E+02   0.1659524E+02   0.3616930E-04  -0.4441660E+01   0.3616930E-04  -0.4441660E+01   0.3000000E+00
   0.1492683E+02   0.1757143E+02   0.4820730E-04  -0.4316887E+01   0.4820730E-04  -0.4316887E+01   0.3000000E+00
   0.1492683E+02   0.1854762E+02   0.7716998E-04  -0.4112552E+01   0.7716998E-04  -0.4112552E+01   0.3000000E+00
   0.1492683E+02   0.1952381E+02   0.2231648E-03  -0.3651374E+01   0.2231648E-03  -0.3651374E+01   0.3000000E+00
   0.1492683E+02   0.2050000E+02   0.2231648E-03  -0.3651374E+01   0.2231648E-03  -0.3651374E+01   0.3000000E+00
   0.1741463E+02   0.0000000E+00   0.3243735E-04  -0.4488955E+01   0.3243735E-04  -0.4488955E+01   0.3000000E+00
   0.1741463E+02   0.9761905E+00   0.1687293E-04  -0.4772809E+01   0.1687293E-04  -0.4772809E+01   0.3000000E+00
   0.1741463E+02   0.1952381E+01   0.2274648E-04  -0.4643086E+01   0.2274648E-04  -0.4643086E+01   0.3000000E+00
   0.1741463E+02   0.2928571E+01   0.1614662E-04  -0.4791918E+01   0.1614662E-04  -0.4791918E+01   0.3000000E+00
   0.1741463E+02   0.3904762E+01   0.1000726E-04  -0.4999685E+01   0.1000726E-04  -0.4999685E+01   0.3000000E+00
   0.1741463E+02   0.4880952E+01   0.1969984E-04  -0.4705537E+01   0.1969984E-04  -0.4705537E+01   0.3000000E+00
   0.1741463E+02   0.5857143E+01   0.2191805E-04  -0.4659198E+01   0.2191805E-04  -0.4659198E+01   0.3000000E+00
   0.1741463E+02   0.6833333E+01   0.2703171E-04  -0.4568127E+01   0.2703171E-04  -0.4568127E+01   0.3000000E+00
   0.1741463E+02   0.7809524E+01   0.2291772E-04  -0.4639829E+01   0.2291772E-04  -0.4639829E+01   0.3000000E+00
   0.1741463E+02   0.8785714E+01   0.1772207E-04  -0.4751486E+01   0.1772207E-04  -0.4751486E+01   0.3000000E+00
   0.1741463E+02   0.9761905E+01   0.1100567E-04  -0.4958384E+01   0.1100567E-04  -0.4958384E+01   0.3000000E+00
   0.1741463E+02   0.1073810E+02   0.1337224E-06  -0.6873796E+01   0.1337224E-06  -0.6873796E+01   0.3000000E+00
   0.1741463E+02   0.1171429E+02   0.2286668E-06  -0.6640797E+01   0.2286668E-06  -0.6640797E+01   0.3000000E+00
   0.1741463E+02   0.1269048E+02   0.1425319E-06  -0.6846088E+01   0.1425319E-06  -0.6846088E+01   0.3000000E+00
   0.1741463E+02   0.1366667E+02   0.1476679E-06  -0.6830714E+01   0.1476679E-06  -0.6830714E+01   0.3000000E+00
   0.1741463E+02   0.1464286E+02   0.3984953E-04  -0.4399577E+01   0.3984953E-04  -0.4399577E+01   0.3000000E+00
   0.1741463E+02   0.1561905E+02   0.2656011E-04  -0.4575770E+01   0.2656011E-04  -0.4575770E+01   0.3000000E+00
   0.1741463E+02   0.1659524E+02   0.4209423E-04  -0.4375777E+01   0.4209423E-04  -0.4375777E+01   0.3000000E+00
   0.1741463E+02   0.1757143E+02   0.1904892E-04  -0.4720130E+01   0.1904892E-04  -0.4720130E+01   0.3000000E+00
   0.1741463E+02   0.1854762E+02   0.8390713E-04  -0.4076201E+01   0.8390713E-04  -0.4076201E+01   0.3000000E+00
   0.1741463E+02   0.1952381E+02   0.2951579E-03  -0.3529946E+01   0.2951579E-03  -0.3529946E+01   0.3000000E+00
   0.1741463E+02   0.2050000E+02   0.2951579E-03  -0.3529946E+01   0.2951579E-03  -0.3529946E+01   0.3000000E+00
   0.1990244E+02   0.0000000E+00   0.5143457E-04  -0.4288745E+01   0.5143457E-04  -0.4288745E+01   0.3000000E+00
   0.1990244E+02   0.9761905E+00   0.1076834E-04  -0.4967851E+01   0.1076834E-04  -0.4967851E+01   0.3000000E+00
   0.1990244E+02   0.1952381E+01   0.8378849E-05  -0.5076816E+01   0.8378849E-05  -0.5076816E+01   0.3000000E+00
   0.1990244E+02   0.2928571E+01   0.2552889E-04  -0.4592968E+01   0.2552889E-04  -0.4592968E+01   0.3000000E+00
   0.1990244E+02   0.3904762E+01   0.2955670E-04  -0.4529344E+01   0.2955670E-04  -0.4529344E+01   0.3000000E+00
   0.1990244E+02   0.4880952E+01   0.4716304E-04  -0.4326398E+01   0.4716304E-04  -0.4326398E+01   0.3000000E+00
   0.1990244E+02   0.5857143E+01   0.5309117E-04  -0.4274978E+01   0.5309117E-04  -0.4274978E+01   0.3000000E+00
   0.1990244E+02   0.6833333E+01   0.6562853E-04  -0.4182907E+01   0.6562853E-04  -0.4182907E+01   0.3000000E+00
   0.1990244E+02   0.7809524E+01   0.6323200E-04  -0.4199063E+01   0.6323200E-04  -0.4199063E+01   0.3000000E+00
   0.1990244E+02   0.8785714E+01   0.4856536E-04  -0.4313673E+01   0.4856536E-04  -0.4313673E+01   0.3000000E+00
   0.1990244E+02   0.9761905E+01   0.3533276E-04  -0.4451822E+01   0.3533276E-04  -0.4451822E+01   0.3000000E+00
   0.1990244E+02   0.1073810E+02   0.2607771E-06  -0.6583731E+01   0.2607771E-06  -0.6583731E+01   0.3000000E+00
   0.1990244E+02   0.1171429E+02   0.1816653E-06  -0.6740728E+01   0.1816653E-06  -0.6740728E+01   0.3000000E+00
   0.1990244E+02   0.1269048E+02   0.2428310E-06  -0.6614696E+01   0.2428310E-06  -0.6614696E+01   0.3000000E+00
   0.1990244E+02   0.1366667E+02   0.1085343E-06  -0.6964433E+01   0.1085343E-06  -0.6964433E+01   0.3000000E+00
   0.1990244E+02   0.1464286E+02   0.6296699E-04  -0.4200887E+01   0.6296699E-04  -0.4200887E+01   0.3000000E+00
   0.1990244E+02   0.1561905E+02   0.2214497E-04  -0.4654725E+01   0.2214497E-04  -0.4654725E+01   0.3000000E+00
   0.1990244E+02   0.1659524E+02   0.2663192E-04  -0.4574597E+01   0.2663192E-04  -0.4574597E+01   0.3000000E+00
   0.1990244E+02   0.1757143E+02   0.1406670E-04  -0.4851808E+01   0.1406670E-04  -0.4851808E+01   0.3000000E+00
   0.1990244E+02   0.1854762E+02   0.3223364E-04  -0.4491691E+01   0.3223364E-04  -0.4491691E+01   0.3000000E+00
   0.1990244E+02   0.1952381E+02   0.6497552E-04  -0.4187250E+01   0.6497552E-04  -0.4187250E+01   0.3000000E+00
   0.1990244E+02   0.2050000E+02   0.6497552E-04  -0.4187250E+01   0.6497552E-04  -0.4187250E+01   0.3000000E+00
   0.2239024E+02   0.0000000E+00   0.1414570E-04  -0.4849376E+01   0.1414570E-04  -0.4849376E+01   0.3000000E+00
   0.2239024E+02   0.9761905E+00   0.2482399E-04  -0.4605128E+01   0.2482399E-04  -0.4605128E+01   0.3000000E+00
   0.2239024E+02   0.1952381E+01   0.1293595E-04  -0.4888202E+01   0.1293595E-04  -0.4888202E+01   0.3000000E+00
   0.2239024E+02   0.2928571E+01   0.1895202E-04  -0.4722344E+01   0.1895202E-04  -0.4722344E+01   0.3000000E+00
   0.2239024E+02   0.3904762E+01   0.2292919E-04  -0.4639611E+01   0.2292919E-04  -0.4639611E+01   0.3000000E+00
   0.2239024E+02   0.4880952E+01   0.5399063E-04  -0.4267682E+01   0.5399063E-04  -0.4267682E+01   0.3000000E+00
   0.2239024E+02   0.5857143E+01   0.5282637E-04  -0.4277149E+01   0.5282637E-04  -0.4277149E+01   0.3000000E+00
   0.2239024E+02   0.6833333E+01   0.1135009E-03  -0.3945001E+01   0.1135009E-03  -0.3945001E+01   0.3000000E+00
   0.2239024E+02   0.7809524E+01   0.7565704E-04  -0.4121151E+01   0.7565704E-04  -0.4121151E+01   0.3000000E+00
   0.2239024E+02   0.8785714E+01   0.1321729E-03  -0.3878858E+01   0.1321729E-03  -0.3878858E+01   0.3000000E+00
   0.2239024E+02   0.9761905E+01   0.8502204E-04  -0.4070468E+01   0.8502204E-04  -0.4070468E+01   0.3000000E+00
   0.2239024E+02   0.1073810E+02   0.4995291E-06  -0.6301439E+01   0.4995291E-06  -0.6301439E+01   0.3000000E+00
   0.2239024E+02   0.1171429E+02   0.1731513E-06  -0.6761574E+01   0.1731513E-06  -0.6761574E+01   0.3000000E+00
   0.2239024E+02   0.1269048E+02   0.1458919E-06  -0.6835969E+01   0.1458919E-06  -0.6835969E+01   0.3000000E+00
   0.2239024E+02   0.1366667E+02   0.3103346E-07  -0.7508170E+01   0.3103346E-07  -0.7508170E+01   0.3000000E+00
   0.2239024E+02   0.1464286E+02   0.4492572E-04  -0.4347505E+01   0.4492572E-04  -0.4347505E+01   0.3000000E+00
   0.2239024E+02   0.1561905E+02   0.3742768E-04  -0.4426807E+01   0.3742768E-04  -0.4426807E+01   0.3000000E+00
   0.2239024E+02   0.1659524E+02   0.1833498E-04  -0.4736720E+01   0.1833498E-04  -0.4736720E+01   0.3000000E+00
   0.2239024E+02   0.1757143E+02   0.7187983E-05  -0.5143393E+01   0.7187983E-05  -0.5143393E+01   0.3000000E+00
   0.2239024E+02   0.1854762E+02   0.1934842E-04  -0.4713355E+01   0.1934842E-04  -0.4713355E+01   0.3000000E+00
   0.2239024E+02   0.1952381E+02   0.4029029E-04  -0.4394800E+01   0.4029029E-04  -0.4394800E+01   0.3000000E+00
   0.2239024E+02   0.2050000E+02   0.4029029E-04  -0.4394800E+01   0.4029029E-04  -0.4394800E+01   0.3000000E+00
   0.2487805E+02   0.0000000E+00   0.1365643E-04  -0.4864663E+01   0.1365643E-04  -0.4864663E+01   0.3000000E+00
   0.2487805E+02   0.9761905E+00   0.1094968E-04  -0.4960598E+01   0.1094968E-04  -0.4960598E+01   0.3000000E+00
   0.2487805E+02   0.1952381E+01   0.3114054E-04  -0.4506674E+01   0.3114054E-04  -0.4506674E+01   0.3000000E+00
   0.2487805E+02   0.2928571E+01   0.1720346E-04  -0.4764384E+01   0.1720346E-04  -0.4764384E+01   0.3000000E+00
   0.2487805E+02   0.3904762E+01   0.3290454E-04  -0.4482744E+01   0.3290454E-04  -0.4482744E+01   0.3000000E+00
   0.2487805E+02   0.4880952E+01   0.3116235E-04  -0.4506370E+01   0.3116235E-04  -0.4506370E+01   0.3000000E+00
   0.2487805E+02   0.5857143E+01   0.5596411E-04  -0.4252090E+01   0.5596411E-04  -0.4252090E+01   0.3000000E+00
   0.2487805E+02   0.6833333E+01   0.7903656E-04  -0.4102172E+01   0.7903656E-04  -0.4102172E+01   0.3000000E+00
   0.2487805E+02   0.7809524E+01   0.5293213E-04  -0.4276281E+01   0.5293213E-04  -0.4276281E+01   0.3000000E+00
   0.2487805E+02   0.8785714E+01   0.6974255E-04  -0.4156502E+01   0.6974255E-04  -0.4156502E+01   0.3000000E+00
   0.2487805E+02   0.9761905E+01   0.4227139E-04  -0.4373953E+01   0.4227139E-04  -0.4373953E+01   0.3000000E+00
   0.2487805E+02   0.1073810E+02   0.4557142E-06  -0.6341307E+01   0.4557142E-06  -0.6341307E+01   0.3000000E+00
   0.2487805E+02   0.1171429E+02   0.3219676E-07  -0.7492188E+01   0.3219676E-07  -0.7492188E+01   0.3000000E+00
   0.2487805E+02   0.1269048E+02   0.2773141E-07  -0.7557028E+01   0.2773141E-07  -0.7557028E+01   0.3000000E+00
   0.2487805E+02   0.1366667E+02   0.3466917E-08  -0.8460057E+01   0.3466917E-08  -0.8460057E+01   0.3000000E+00
   0.2487805E+02   0.1464286E+02   0.3927195E-04  -0.4405918E+01   0.3927195E-04  -0.4405918E+01   0.3000000E+00
   0.2487805E+02   0.1561905E+02   0.2124689E-04  -0.4672705E+01   0.2124689E-04  -0.4672705E+01   0.3000000E+00
   0.2487805E+02   0.1659524E+02   0.1603880E-04  -0.4794828E+01   0.1603880E-04  -0.4794828E+01   0.3000000E+00
   0.2487805E+02   0.1757143E+02   0.1692701E-04  -0.4771420E+01   0.1692701E-04  -0.4771420E+01   0.3000000E+00
   0.2487805E+02   0.1854762E+02   0.1862511E-04  -0.4729901E+01   0.1862511E-04  -0.4729901E+01   0.3000000E+00
   0.2487805E+02   0.1952381E+02   0.3150703E-04  -0.4501593E+01   0.3150703E-04  -0.4501593E+01   0.3000000E+00
   0.2487805E+02   0.2050000E+02   0.3150703E-04  -0.4501593E+01   0.3150703E-04  -0.4501593E+01   0.3000000E+00
   0.2736585E+02   0.0000000E+00   0.2638275E-04  -0.4578680E+01   0.2638275E-04  -0.4578680E+01   0.3000000E+00
   0.2736585E+02   0.9761905E+00   0.3555250E-04  -0.4449130E+01   0.3555250E-04  -0.4449130E+01   0.3000000E+00
   0.2736585E+02   0.1952381E+01   0.4260666E-04  -0.4370523E+01   0.4260666E-04  -0.4370523E+01   0.3000000E+00
   0.2736585E+02   0.2928571E+01   0.3596731E-04  -0.4444092E+01   0.3596731E-04  -0.4444092E+01   0.3000000E+00
   0.2736585E+02   0.3904762E+01   0.4063016E-04  -0.4391152E+01   0.4063016E-04  -0.4391152E+01   0.3000000E+00
   0.2736585E+02   0.4880952E+01   0.3517412E-04  -0.4453777E+01   0.3517412E-04  -0.4453777E+01   0.3000000E+00
   0.2736585E+02   0.5857143E+01   0.6014213E-04  -0.4220821E+01   0.6014213E-04  -0.4220821E+01   0.3000000E+00
   0.2736585E+02   0.6833333E+01   0.8126460E-04  -0.4090099E+01   0.8126460E-04  -0.4090099E+01   0.3000000E+00
   0.2736585E+02   0.7809524E+01   0.6776261E-04  -0.4169010E+01   0.6776261E-04  -0.4169010E+01   0.3000000E+00
   0.2736585E+02   0.8785714E+01   0.2477192E-04  -0.4606040E+01   0.2477192E-04  -0.4606040E+01   0.3000000E+00
   0.2736585E+02   0.9761905E+01   0.7445616E-04  -0.4128099E+01   0.7445616E-04  -0.4128099E+01   0.3000000E+00
   0.2736585E+02   0.1073810E+02   0.9616647E-06  -0.6016976E+01   0.9616647E-06  -0.6016976E+01   0.3000000E+00
   0.2736585E+02   0.1171429E+02   0.1583909E-06  -0.6800270E+01   0.1583909E-06  -0.6800270E+01   0.3000000E+00
   0.2736585E+02   0.1269048E+02   0.2103454E-07  -0.7677067E+01   0.2103454E-07  -0.7677067E+01   0.3000000E+00
   0.2736585E+02   0.1366667E+02   0.6571656E-08  -0.8182325E+01   0.6571656E-08  -0.8182325E+01   0.3000000E+00
   0.2736585E+02   0.1464286E+02   0.2206098E-04  -0.4656375E+01   0.2206098E-04  -0.4656375E+01   0.3000000E+00
   0.2736585E+02   0.1561905E+02   0.1861766E-04  -0.4730075E+01   0.1861766E-04  -0.4730075E+01   0.3000000E+00
   0.2736585E+02   0.1659524E+02   0.1633828E-04  -0.4786794E+01   0.1633828E-04  -0.4786794E+01   0.3000000E+00
   0.2736585E+02   0.1757143E+02   0.1976693E-04  -0.4704061E+01   0.1976693E-04  -0.4704061E+01   0.3000000E+00
   0.2736585E+02   0.1854762E+02   0.2920998E-04  -0.4534469E+01   0.2920998E-04  -0.4534469E+01   0.3000000E+00
   0.2736585E+02   0.1952381E+02   0.3407318E-04  -0.4467587E+01   0.3407318E-04  -0.4467587E+01   0.3000000E+00
   0.2736585E+02   0.2050000E+02   0.3407318E-04  -0.4467587E+01   0.3407318E-04  -0.4467587E+01   0.3000000E+00