title="2d vectors xy, t=    0.150E+03"
variables="x","y","vx","vy"
zone i=    41, j=    41, T="   0.150E+03"
  0.124390E+01  0.124390E+01  0.183067E-06 -0.164567E-08
  0.124390E+01  0.373171E+01  0.178708E-06  0.284193E-08
  0.124390E+01  0.621951E+01  0.192070E-06  0.164313E-07
  0.124390E+01  0.870732E+01  0.255876E-06  0.174768E-07
  0.124390E+01  0.111951E+02  0.129002E-06 -0.698610E-08
  0.124390E+01  0.136829E+02  0.223734E-06 -0.381356E-07
  0.124390E+01  0.161707E+02  0.236757E-06 -0.542394E-08
  0.124390E+01  0.186585E+02  0.208508E-06 -0.151143E-07
  0.124390E+01  0.211463E+02  0.107856E-06 -0.128350E-07
  0.124390E+01  0.236341E+02  0.259376E-06  0.980450E-09
  0.124390E+01  0.261220E+02  0.192830E-06 -0.439635E-08
  0.124390E+01  0.286098E+02  0.200627E-06 -0.820808E-08
  0.124390E+01  0.310976E+02  0.610356E-07  0.831132E-08
  0.124390E+01  0.335854E+02  0.609745E-07  0.794634E-08
  0.124390E+01  0.360732E+02  0.102760E-06  0.206895E-08
  0.124390E+01  0.385610E+02  0.146021E-06 -0.130949E-07
  0.124390E+01  0.410488E+02  0.293513E-06 -0.344144E-07
  0.124390E+01  0.435366E+02  0.292959E-06 -0.124675E-07
  0.124390E+01  0.460244E+02  0.171712E-06  0.916914E-08
  0.124390E+01  0.485122E+02  0.302907E-06  0.276676E-07
  0.124390E+01  0.510000E+02  0.275493E-06  0.338331E-07
  0.124390E+01  0.534878E+02  0.860882E-07  0.105910E-07
  0.124390E+01  0.559756E+02  0.866806E-07  0.438662E-08
  0.124390E+01  0.584634E+02  0.147324E-06  0.395869E-08
  0.124390E+01  0.609512E+02  0.227579E-06  0.213370E-07
  0.124390E+01  0.634390E+02  0.137039E-06  0.113238E-07
  0.124390E+01  0.659268E+02  0.282669E-06  0.893069E-10
  0.124390E+01  0.684146E+02  0.692161E-06  0.631230E-07
  0.124390E+01  0.709024E+02  0.404203E-06  0.947668E-08
  0.124390E+01  0.733902E+02  0.512611E-06 -0.937001E-07
  0.124390E+01  0.758780E+02  0.888645E-06 -0.114863E-06
  0.124390E+01  0.783659E+02  0.119624E-05  0.124384E-07
  0.124390E+01  0.808537E+02  0.587369E-06  0.959325E-08
  0.124390E+01  0.833415E+02  0.567411E-06  0.336469E-07
  0.124390E+01  0.858293E+02  0.303877E-06  0.558122E-07
  0.124390E+01  0.883171E+02  0.138071E-06  0.195679E-07
  0.124390E+01  0.908049E+02  0.193987E-06 -0.539180E-08
  0.124390E+01  0.932927E+02  0.208942E-06 -0.206758E-08
  0.124390E+01  0.957805E+02  0.132964E-06  0.632838E-08
  0.124390E+01  0.982683E+02  0.351138E-06  0.441604E-07
  0.124390E+01  0.100756E+03  0.442537E-06  0.254041E-06
  0.373171E+01  0.124390E+01  0.285373E-06  0.840413E-08
  0.373171E+01  0.373171E+01  0.197247E-06  0.348725E-07
  0.373171E+01  0.621951E+01  0.130495E-06  0.251185E-07
  0.373171E+01  0.870732E+01  0.238027E-06  0.261382E-07
  0.373171E+01  0.111951E+02  0.270767E-06 -0.213842E-07
  0.373171E+01  0.136829E+02  0.131999E-06 -0.381997E-07
  0.373171E+01  0.161707E+02  0.177829E-06 -0.163666E-07
  0.373171E+01  0.186585E+02  0.251762E-06 -0.294976E-07
  0.373171E+01  0.211463E+02  0.155598E-06 -0.465902E-07
  0.373171E+01  0.236341E+02  0.238811E-06 -0.383634E-07
  0.373171E+01  0.261220E+02  0.339908E-06 -0.812608E-08
  0.373171E+01  0.286098E+02  0.228409E-06  0.136636E-07
  0.373171E+01  0.310976E+02  0.524457E-07  0.161687E-07
  0.373171E+01  0.335854E+02  0.900952E-07  0.214637E-07
  0.373171E+01  0.360732E+02  0.922752E-07  0.214430E-08
  0.373171E+01  0.385610E+02  0.163375E-06 -0.193545E-07
  0.373171E+01  0.410488E+02  0.131336E-06 -0.217113E-07
  0.373171E+01  0.435366E+02  0.171141E-06 -0.272446E-07
  0.373171E+01  0.460244E+02  0.142858E-06  0.776713E-08
  0.373171E+01  0.485122E+02  0.175651E-06  0.452111E-07
  0.373171E+01  0.510000E+02  0.193829E-06  0.528934E-07
  0.373171E+01  0.534878E+02  0.167346E-06  0.409043E-07
  0.373171E+01  0.559756E+02  0.134444E-06  0.149142E-07
  0.373171E+01  0.584634E+02  0.198849E-06  0.290202E-07
  0.373171E+01  0.609512E+02  0.189695E-06  0.481541E-07
  0.373171E+01  0.634390E+02  0.273253E-06  0.693433E-07
  0.373171E+01  0.659268E+02  0.457139E-06  0.804827E-07
  0.373171E+01  0.684146E+02  0.494634E-06  0.521206E-07
  0.373171E+01  0.709024E+02  0.891762E-06 -0.360050E-07
  0.373171E+01  0.733902E+02  0.741998E-06 -0.176486E-06
  0.373171E+01  0.758780E+02  0.434539E-06 -0.120156E-06
  0.373171E+01  0.783659E+02  0.135409E-05  0.380752E-07
  0.373171E+01  0.808537E+02  0.678554E-06  0.124472E-06
  0.373171E+01  0.833415E+02  0.604991E-06  0.891587E-07
  0.373171E+01  0.858293E+02  0.283862E-06  0.547876E-07
  0.373171E+01  0.883171E+02  0.289341E-06  0.404912E-07
  0.373171E+01  0.908049E+02  0.170023E-06  0.150270E-07
  0.373171E+01  0.932927E+02  0.168407E-06  0.167740E-07
  0.373171E+01  0.957805E+02  0.138267E-06  0.153993E-07
  0.373171E+01  0.982683E+02  0.264597E-06  0.431146E-07
  0.373171E+01  0.100756E+03  0.668707E-06  0.177411E-07
  0.621951E+01  0.124390E+01  0.292046E-06  0.567868E-07
  0.621951E+01  0.373171E+01  0.170791E-06  0.462866E-07
  0.621951E+01  0.621951E+01  0.267021E-06  0.271820E-07
  0.621951E+01  0.870732E+01  0.164591E-06  0.174613E-07
  0.621951E+01  0.111951E+02  0.125036E-06  0.951563E-08
  0.621951E+01  0.136829E+02  0.104929E-06 -0.321377E-08
  0.621951E+01  0.161707E+02  0.972049E-07 -0.117659E-07
  0.621951E+01  0.186585E+02  0.286321E-06 -0.459811E-07
  0.621951E+01  0.211463E+02  0.198178E-06 -0.544571E-07
  0.621951E+01  0.236341E+02  0.210198E-06 -0.522642E-07
  0.621951E+01  0.261220E+02  0.205206E-06 -0.140964E-07
  0.621951E+01  0.286098E+02  0.237939E-06  0.392648E-07
  0.621951E+01  0.310976E+02  0.644437E-07  0.186361E-07
  0.621951E+01  0.335854E+02  0.151133E-06  0.300713E-07
  0.621951E+01  0.360732E+02  0.148917E-06  0.624532E-09
  0.621951E+01  0.385610E+02  0.156231E-06 -0.199973E-07
  0.621951E+01  0.410488E+02  0.153644E-06 -0.133369E-07
  0.621951E+01  0.435366E+02  0.930486E-07 -0.817538E-08
  0.621951E+01  0.460244E+02  0.372828E-07 -0.119656E-09
  0.621951E+01  0.485122E+02  0.132306E-06  0.302253E-07
  0.621951E+01  0.510000E+02  0.193391E-06  0.518525E-07
  0.621951E+01  0.534878E+02  0.272097E-06  0.981495E-07
  0.621951E+01  0.559756E+02  0.165749E-06  0.456199E-07
  0.621951E+01  0.584634E+02  0.112483E-06  0.296378E-07
  0.621951E+01  0.609512E+02  0.232788E-06  0.594348E-07
  0.621951E+01  0.634390E+02  0.281474E-06  0.742018E-07
  0.621951E+01  0.659268E+02  0.484914E-06  0.138299E-06
  0.621951E+01  0.684146E+02  0.969560E-06  0.762411E-07
  0.621951E+01  0.709024E+02  0.840560E-06 -0.915347E-07
  0.621951E+01  0.733902E+02  0.935251E-06 -0.196995E-06
  0.621951E+01  0.758780E+02  0.654780E-06 -0.169529E-06
  0.621951E+01  0.783659E+02  0.599559E-06  0.795104E-07
  0.621951E+01  0.808537E+02  0.973756E-06  0.289400E-06
  0.621951E+01  0.833415E+02  0.632425E-06  0.186457E-06
  0.621951E+01  0.858293E+02  0.367246E-06  0.657177E-07
  0.621951E+01  0.883171E+02  0.242254E-06  0.236802E-07
  0.621951E+01  0.908049E+02  0.156352E-06  0.300225E-07
  0.621951E+01  0.932927E+02  0.233689E-06  0.598687E-07
  0.621951E+01  0.957805E+02  0.142921E-06  0.318075E-07
  0.621951E+01  0.982683E+02  0.329155E-06  0.131078E-07
  0.621951E+01  0.100756E+03  0.941310E-06 -0.103818E-07
  0.870732E+01  0.124390E+01  0.143200E-06  0.143005E-07
  0.870732E+01  0.373171E+01  0.267382E-06  0.540454E-07
  0.870732E+01  0.621951E+01  0.338032E-06  0.673348E-07
  0.870732E+01  0.870732E+01  0.152174E-06  0.197384E-07
  0.870732E+01  0.111951E+02  0.219917E-06  0.127040E-07
  0.870732E+01  0.136829E+02  0.154530E-06  0.218684E-07
  0.870732E+01  0.161707E+02  0.324006E-06 -0.190284E-07
  0.870732E+01  0.186585E+02  0.367001E-06 -0.351661E-07
  0.870732E+01  0.211463E+02  0.388529E-06 -0.515188E-07
  0.870732E+01  0.236341E+02  0.268984E-06 -0.454960E-07
  0.870732E+01  0.261220E+02  0.199918E-06 -0.298494E-07
  0.870732E+01  0.286098E+02  0.256066E-06  0.591662E-08
  0.870732E+01  0.310976E+02  0.278168E-06  0.383498E-07
  0.870732E+01  0.335854E+02  0.164293E-06  0.245179E-08
  0.870732E+01  0.360732E+02  0.401287E-06 -0.166724E-08
  0.870732E+01  0.385610E+02  0.316747E-06 -0.288214E-07
  0.870732E+01  0.410488E+02  0.136298E-06 -0.182497E-07
  0.870732E+01  0.435366E+02  0.154412E-06 -0.120400E-07
  0.870732E+01  0.460244E+02  0.234709E-07  0.363584E-08
  0.870732E+01  0.485122E+02  0.112800E-06  0.206832E-07
  0.870732E+01  0.510000E+02  0.250868E-06  0.625103E-07
  0.870732E+01  0.534878E+02  0.174596E-06  0.657705E-07
  0.870732E+01  0.559756E+02  0.172662E-06  0.817245E-07
  0.870732E+01  0.584634E+02  0.186378E-06  0.829938E-07
  0.870732E+01  0.609512E+02  0.219498E-06  0.967918E-07
  0.870732E+01  0.634390E+02  0.323873E-06  0.105207E-06
  0.870732E+01  0.659268E+02  0.429441E-06  0.787286E-07
  0.870732E+01  0.684146E+02  0.117669E-05  0.159112E-06
  0.870732E+01  0.709024E+02  0.160055E-05 -0.121098E-06
  0.870732E+01  0.733902E+02  0.837237E-06 -0.189251E-06
  0.870732E+01  0.758780E+02  0.332074E-06  0.276886E-07
  0.870732E+01  0.783659E+02  0.506205E-06  0.968790E-07
  0.870732E+01  0.808537E+02  0.606379E-06  0.211379E-06
  0.870732E+01  0.833415E+02  0.569741E-06  0.261041E-06
  0.870732E+01  0.858293E+02  0.266595E-06  0.747326E-07
  0.870732E+01  0.883171E+02  0.135239E-06  0.263008E-07
  0.870732E+01  0.908049E+02  0.162395E-06  0.268678E-07
  0.870732E+01  0.932927E+02  0.157806E-06  0.445730E-07
  0.870732E+01  0.957805E+02  0.271024E-06  0.550914E-07
  0.870732E+01  0.982683E+02  0.505939E-06 -0.648140E-07
  0.870732E+01  0.100756E+03  0.944424E-06 -0.597300E-07
  0.111951E+02  0.124390E+01  0.135234E-06  0.193431E-08
  0.111951E+02  0.373171E+01  0.176354E-06  0.528182E-08
  0.111951E+02  0.621951E+01  0.339196E-06  0.322089E-07
  0.111951E+02  0.870732E+01  0.480755E-06  0.356471E-07
  0.111951E+02  0.111951E+02  0.417389E-06  0.501384E-07
  0.111951E+02  0.136829E+02  0.205196E-06  0.380028E-07
  0.111951E+02  0.161707E+02  0.360550E-06  0.417423E-07
  0.111951E+02  0.186585E+02  0.449020E-06  0.642335E-08
  0.111951E+02  0.211463E+02  0.400028E-06 -0.313226E-07
  0.111951E+02  0.236341E+02  0.386072E-06 -0.470379E-07
  0.111951E+02  0.261220E+02  0.354588E-06 -0.733578E-07
  0.111951E+02  0.286098E+02  0.226769E-06 -0.234632E-07
  0.111951E+02  0.310976E+02  0.426514E-06  0.231053E-07
  0.111951E+02  0.335854E+02  0.288350E-06 -0.369897E-08
  0.111951E+02  0.360732E+02  0.607713E-06 -0.270375E-07
  0.111951E+02  0.385610E+02  0.624750E-06 -0.485886E-07
  0.111951E+02  0.410488E+02  0.322594E-06 -0.375599E-07
  0.111951E+02  0.435366E+02  0.125444E-06 -0.492647E-08
  0.111951E+02  0.460244E+02  0.607735E-07  0.488674E-08
  0.111951E+02  0.485122E+02  0.129509E-06  0.166297E-07
  0.111951E+02  0.510000E+02  0.849098E-07  0.170895E-07
  0.111951E+02  0.534878E+02  0.278532E-06  0.485272E-07
  0.111951E+02  0.559756E+02  0.172430E-06  0.533727E-07
  0.111951E+02  0.584634E+02  0.295289E-06  0.163837E-06
  0.111951E+02  0.609512E+02  0.341592E-06  0.202821E-06
  0.111951E+02  0.634390E+02  0.557224E-06  0.190406E-06
  0.111951E+02  0.659268E+02  0.866073E-06  0.770457E-07
  0.111951E+02  0.684146E+02  0.893938E-06  0.230429E-07
  0.111951E+02  0.709024E+02  0.170278E-05  0.110363E-06
  0.111951E+02  0.733902E+02  0.390019E-06  0.642961E-07
  0.111951E+02  0.758780E+02  0.217987E-06  0.588733E-07
  0.111951E+02  0.783659E+02  0.280575E-06  0.696941E-07
  0.111951E+02  0.808537E+02  0.233694E-06  0.766079E-07
  0.111951E+02  0.833415E+02  0.317304E-06  0.115698E-06
  0.111951E+02  0.858293E+02  0.364015E-06  0.117214E-06
  0.111951E+02  0.883171E+02  0.189527E-06  0.395653E-07
  0.111951E+02  0.908049E+02  0.200798E-06  0.279446E-07
  0.111951E+02  0.932927E+02  0.152681E-06  0.493471E-07
  0.111951E+02  0.957805E+02  0.343250E-06  0.347900E-07
  0.111951E+02  0.982683E+02  0.443219E-06 -0.115472E-07
  0.111951E+02  0.100756E+03  0.668023E-06 -0.135966E-07
  0.136829E+02  0.124390E+01  0.137681E-06 -0.338337E-09
  0.136829E+02  0.373171E+01  0.335909E-06 -0.123129E-07
  0.136829E+02  0.621951E+01  0.396435E-06 -0.389877E-07
  0.136829E+02  0.870732E+01  0.783398E-06 -0.359939E-07
  0.136829E+02  0.111951E+02  0.419034E-06  0.493295E-07
  0.136829E+02  0.136829E+02  0.462861E-06  0.102853E-06
  0.136829E+02  0.161707E+02  0.251803E-06  0.541054E-07
  0.136829E+02  0.186585E+02  0.696533E-06  0.186655E-07
  0.136829E+02  0.211463E+02  0.399746E-06 -0.305845E-07
  0.136829E+02  0.236341E+02  0.582586E-06 -0.583100E-07
  0.136829E+02  0.261220E+02  0.318518E-06 -0.401204E-07
  0.136829E+02  0.286098E+02  0.252932E-06 -0.132417E-07
  0.136829E+02  0.310976E+02  0.311877E-06 -0.178126E-07
  0.136829E+02  0.335854E+02  0.565596E-06 -0.433597E-07
  0.136829E+02  0.360732E+02  0.729884E-06 -0.497418E-07
  0.136829E+02  0.385610E+02  0.764031E-06 -0.586021E-08
  0.136829E+02  0.410488E+02  0.415392E-06  0.478983E-09
  0.136829E+02  0.435366E+02  0.162652E-06  0.970351E-08
  0.136829E+02  0.460244E+02  0.109021E-06  0.424714E-08
  0.136829E+02  0.485122E+02  0.106522E-06 -0.173360E-09
  0.136829E+02  0.510000E+02  0.121770E-06  0.277955E-08
  0.136829E+02  0.534878E+02  0.312353E-06  0.115461E-07
  0.136829E+02  0.559756E+02  0.208539E-06  0.551679E-07
  0.136829E+02  0.584634E+02  0.288054E-06  0.107129E-06
  0.136829E+02  0.609512E+02  0.515174E-06  0.164254E-06
  0.136829E+02  0.634390E+02  0.728285E-06  0.127378E-06
  0.136829E+02  0.659268E+02  0.124242E-05  0.254344E-07
  0.136829E+02  0.684146E+02  0.540734E-06 -0.556017E-07
  0.136829E+02  0.709024E+02  0.699854E-06  0.914930E-07
  0.136829E+02  0.733902E+02  0.339408E-06  0.167084E-06
  0.136829E+02  0.758780E+02  0.147251E-06  0.726322E-07
  0.136829E+02  0.783659E+02  0.169264E-06  0.931452E-07
  0.136829E+02  0.808537E+02  0.149621E-06  0.975535E-07
  0.136829E+02  0.833415E+02  0.232473E-06  0.118418E-06
  0.136829E+02  0.858293E+02  0.342411E-06  0.917092E-07
  0.136829E+02  0.883171E+02  0.305635E-06  0.466464E-07
  0.136829E+02  0.908049E+02  0.153391E-06  0.131301E-07
  0.136829E+02  0.932927E+02  0.176852E-06  0.341411E-07
  0.136829E+02  0.957805E+02  0.326471E-06  0.794453E-07
  0.136829E+02  0.982683E+02  0.440476E-06  0.611207E-07
  0.136829E+02  0.100756E+03  0.581457E-06  0.451361E-08
  0.161707E+02  0.124390E+01  0.157384E-06 -0.292492E-08
  0.161707E+02  0.373171E+01  0.344686E-06 -0.219616E-07
  0.161707E+02  0.621951E+01  0.430665E-06 -0.340516E-07
  0.161707E+02  0.870732E+01  0.512227E-06 -0.396871E-07
  0.161707E+02  0.111951E+02  0.283492E-06 -0.744784E-08
  0.161707E+02  0.136829E+02  0.432185E-06  0.761262E-07
  0.161707E+02  0.161707E+02  0.426605E-06  0.514519E-07
  0.161707E+02  0.186585E+02  0.630532E-06  0.153783E-07
  0.161707E+02  0.211463E+02  0.459214E-06 -0.384000E-08
  0.161707E+02  0.236341E+02  0.530124E-06 -0.250385E-07
  0.161707E+02  0.261220E+02  0.218766E-06  0.468585E-08
  0.161707E+02  0.286098E+02  0.255834E-06 -0.925883E-08
  0.161707E+02  0.310976E+02  0.369504E-06 -0.319822E-07
  0.161707E+02  0.335854E+02  0.524910E-06 -0.460676E-07
  0.161707E+02  0.360732E+02  0.712007E-06 -0.636149E-07
  0.161707E+02  0.385610E+02  0.547244E-06  0.298280E-07
  0.161707E+02  0.410488E+02  0.576637E-06  0.750052E-07
  0.161707E+02  0.435366E+02  0.104387E-06  0.170848E-07
  0.161707E+02  0.460244E+02  0.133381E-06  0.840554E-08
  0.161707E+02  0.485122E+02  0.760636E-07 -0.228448E-08
  0.161707E+02  0.510000E+02  0.147106E-06 -0.990288E-08
  0.161707E+02  0.534878E+02  0.146460E-06  0.244791E-09
  0.161707E+02  0.559756E+02  0.143243E-06  0.220389E-07
  0.161707E+02  0.584634E+02  0.223150E-06  0.736607E-07
  0.161707E+02  0.609512E+02  0.627178E-06  0.225606E-06
  0.161707E+02  0.634390E+02  0.115069E-05  0.167950E-06
  0.161707E+02  0.659268E+02  0.111928E-05  0.199344E-07
  0.161707E+02  0.684146E+02  0.226542E-06  0.542825E-08
  0.161707E+02  0.709024E+02  0.338461E-06  0.256719E-07
  0.161707E+02  0.733902E+02  0.342238E-06  0.911819E-07
  0.161707E+02  0.758780E+02  0.134912E-06  0.605222E-07
  0.161707E+02  0.783659E+02  0.836021E-07  0.501818E-07
  0.161707E+02  0.808537E+02  0.137519E-06  0.654176E-07
  0.161707E+02  0.833415E+02  0.191491E-06  0.588564E-07
  0.161707E+02  0.858293E+02  0.380866E-06  0.530380E-07
  0.161707E+02  0.883171E+02  0.350030E-06  0.407193E-07
  0.161707E+02  0.908049E+02  0.147931E-06  0.815817E-08
  0.161707E+02  0.932927E+02  0.134718E-06 -0.114060E-07
  0.161707E+02  0.957805E+02  0.161377E-06  0.204038E-07
  0.161707E+02  0.982683E+02  0.290976E-06  0.186585E-07
  0.161707E+02  0.100756E+03  0.401872E-06 -0.518220E-08
  0.186585E+02  0.124390E+01  0.156669E-06 -0.787607E-08
  0.186585E+02  0.373171E+01  0.337330E-06 -0.222010E-07
  0.186585E+02  0.621951E+01  0.268934E-06 -0.160699E-07
  0.186585E+02  0.870732E+01  0.374699E-06 -0.257450E-07
  0.186585E+02  0.111951E+02  0.137242E-06 -0.116252E-07
  0.186585E+02  0.136829E+02  0.453701E-06  0.787042E-07
  0.186585E+02  0.161707E+02  0.832051E-06  0.625518E-07
  0.186585E+02  0.186585E+02  0.518532E-06  0.165423E-07
  0.186585E+02  0.211463E+02  0.538055E-06  0.413240E-07
  0.186585E+02  0.236341E+02  0.283646E-06  0.213590E-07
  0.186585E+02  0.261220E+02  0.150564E-06  0.165657E-07
  0.186585E+02  0.286098E+02  0.217185E-06  0.110423E-07
  0.186585E+02  0.310976E+02  0.138049E-06 -0.108463E-08
  0.186585E+02  0.335854E+02  0.582011E-06 -0.484156E-07
  0.186585E+02  0.360732E+02  0.388730E-06 -0.276811E-07
  0.186585E+02  0.385610E+02  0.302425E-06  0.440233E-08
  0.186585E+02  0.410488E+02  0.383878E-06  0.550195E-07
  0.186585E+02  0.435366E+02  0.148178E-06  0.419901E-07
  0.186585E+02  0.460244E+02  0.575000E-07  0.697520E-08
  0.186585E+02  0.485122E+02  0.836773E-07  0.520765E-08
  0.186585E+02  0.510000E+02  0.173107E-06 -0.154838E-08
  0.186585E+02  0.534878E+02  0.133713E-06  0.717907E-08
  0.186585E+02  0.559756E+02  0.838318E-07  0.570338E-08
  0.186585E+02  0.584634E+02  0.565388E-07  0.823696E-08
  0.186585E+02  0.609512E+02  0.309306E-06  0.448272E-07
  0.186585E+02  0.634390E+02  0.101556E-05  0.108078E-06
  0.186585E+02  0.659268E+02  0.775882E-06  0.141784E-06
  0.186585E+02  0.684146E+02  0.297314E-06  0.717901E-07
  0.186585E+02  0.709024E+02  0.433550E-06  0.606145E-07
  0.186585E+02  0.733902E+02  0.301893E-06  0.983741E-07
  0.186585E+02  0.758780E+02  0.186863E-06  0.920845E-07
  0.186585E+02  0.783659E+02  0.904625E-07  0.504192E-07
  0.186585E+02  0.808537E+02  0.212473E-06  0.786046E-07
  0.186585E+02  0.833415E+02  0.300749E-06  0.906923E-07
  0.186585E+02  0.858293E+02  0.474229E-06  0.115610E-06
  0.186585E+02  0.883171E+02  0.284758E-06  0.795715E-07
  0.186585E+02  0.908049E+02  0.239165E-06  0.364895E-07
  0.186585E+02  0.932927E+02  0.935299E-07 -0.892048E-08
  0.186585E+02  0.957805E+02  0.619799E-07 -0.133716E-07
  0.186585E+02  0.982683E+02  0.279079E-06 -0.583690E-08
  0.186585E+02  0.100756E+03  0.243843E-06  0.594914E-08
  0.211463E+02  0.124390E+01  0.222381E-06 -0.134904E-07
  0.211463E+02  0.373171E+01  0.184169E-06  0.361368E-08
  0.211463E+02  0.621951E+01  0.264118E-06 -0.160346E-07
  0.211463E+02  0.870732E+01  0.231203E-06  0.112426E-07
  0.211463E+02  0.111951E+02  0.251802E-06  0.121478E-07
  0.211463E+02  0.136829E+02  0.309544E-06 -0.823263E-08
  0.211463E+02  0.161707E+02  0.975756E-06  0.693807E-08
  0.211463E+02  0.186585E+02  0.905816E-06 -0.674777E-07
  0.211463E+02  0.211463E+02  0.386657E-06  0.221990E-07
  0.211463E+02  0.236341E+02  0.255977E-06  0.452855E-07
  0.211463E+02  0.261220E+02  0.109594E-06  0.342509E-07
  0.211463E+02  0.286098E+02  0.148524E-06  0.422884E-07
  0.211463E+02  0.310976E+02  0.332932E-06 -0.203079E-07
  0.211463E+02  0.335854E+02  0.330970E-06 -0.186249E-07
  0.211463E+02  0.360732E+02  0.276671E-06  0.330261E-07
  0.211463E+02  0.385610E+02  0.357272E-06  0.237936E-07
  0.211463E+02  0.410488E+02  0.213975E-06  0.279781E-07
  0.211463E+02  0.435366E+02  0.241421E-06  0.821512E-07
  0.211463E+02  0.460244E+02  0.975367E-07  0.400067E-07
  0.211463E+02  0.485122E+02  0.746191E-07  0.102108E-07
  0.211463E+02  0.510000E+02  0.100895E-06  0.399662E-08
  0.211463E+02  0.534878E+02  0.111800E-06  0.169503E-07
  0.211463E+02  0.559756E+02  0.866375E-07  0.180883E-07
  0.211463E+02  0.584634E+02  0.706732E-07  0.831232E-08
  0.211463E+02  0.609512E+02  0.307813E-06 -0.179620E-07
  0.211463E+02  0.634390E+02  0.836267E-06  0.511190E-07
  0.211463E+02  0.659268E+02  0.732325E-06  0.190237E-06
  0.211463E+02  0.684146E+02  0.720739E-06  0.230349E-06
  0.211463E+02  0.709024E+02  0.350869E-06  0.127223E-06
  0.211463E+02  0.733902E+02  0.298868E-06  0.197125E-06
  0.211463E+02  0.758780E+02  0.255288E-06  0.273297E-06
  0.211463E+02  0.783659E+02  0.322572E-06  0.199778E-06
  0.211463E+02  0.808537E+02  0.404184E-06  0.782022E-07
  0.211463E+02  0.833415E+02  0.270500E-06  0.541755E-07
  0.211463E+02  0.858293E+02  0.653050E-06  0.209001E-06
  0.211463E+02  0.883171E+02  0.271530E-06  0.115252E-06
  0.211463E+02  0.908049E+02  0.245097E-06  0.638509E-07
  0.211463E+02  0.932927E+02  0.130197E-06  0.125896E-07
  0.211463E+02  0.957805E+02  0.776334E-07 -0.255560E-07
  0.211463E+02  0.982683E+02  0.102460E-06 -0.161625E-07
  0.211463E+02  0.100756E+03  0.334871E-06 -0.428688E-08
  0.236341E+02  0.124390E+01  0.101091E-06  0.201531E-08
  0.236341E+02  0.373171E+01  0.223646E-06  0.705831E-08
  0.236341E+02  0.621951E+01  0.410658E-06  0.285426E-08
  0.236341E+02  0.870732E+01  0.197410E-06  0.102089E-07
  0.236341E+02  0.111951E+02  0.473633E-06 -0.122556E-08
  0.236341E+02  0.136829E+02  0.328177E-06 -0.108785E-06
  0.236341E+02  0.161707E+02  0.108505E-05 -0.243465E-06
  0.236341E+02  0.186585E+02  0.481842E-06 -0.228685E-07
  0.236341E+02  0.211463E+02  0.241176E-06  0.837719E-08
  0.236341E+02  0.236341E+02  0.273856E-06  0.297766E-07
  0.236341E+02  0.261220E+02  0.132264E-06  0.660987E-07
  0.236341E+02  0.286098E+02  0.205624E-06  0.268000E-07
  0.236341E+02  0.310976E+02  0.315983E-06  0.756644E-09
  0.236341E+02  0.335854E+02  0.237402E-06  0.326758E-07
  0.236341E+02  0.360732E+02  0.228503E-06  0.522868E-07
  0.236341E+02  0.385610E+02  0.236953E-06  0.615621E-07
  0.236341E+02  0.410488E+02  0.216487E-06  0.886502E-07
  0.236341E+02  0.435366E+02  0.249866E-06  0.108536E-06
  0.236341E+02  0.460244E+02  0.141523E-06  0.956962E-07
  0.236341E+02  0.485122E+02  0.735681E-07  0.437797E-07
  0.236341E+02  0.510000E+02  0.109201E-06  0.498317E-07
  0.236341E+02  0.534878E+02  0.753065E-07  0.302841E-07
  0.236341E+02  0.559756E+02  0.118997E-06  0.492925E-07
  0.236341E+02  0.584634E+02  0.141395E-06  0.314882E-07
  0.236341E+02  0.609512E+02  0.537087E-06  0.625465E-08
  0.236341E+02  0.634390E+02  0.470730E-06  0.119750E-07
  0.236341E+02  0.659268E+02  0.775926E-06  0.748251E-07
  0.236341E+02  0.684146E+02  0.462645E-06  0.167595E-06
  0.236341E+02  0.709024E+02  0.468128E-06  0.314479E-06
  0.236341E+02  0.733902E+02  0.232095E-06  0.238833E-06
  0.236341E+02  0.758780E+02  0.242500E-06  0.256554E-06
  0.236341E+02  0.783659E+02  0.606805E-06  0.383772E-06
  0.236341E+02  0.808537E+02  0.606738E-06  0.227276E-06
  0.236341E+02  0.833415E+02  0.362123E-06  0.118224E-06
  0.236341E+02  0.858293E+02  0.294021E-06  0.920603E-07
  0.236341E+02  0.883171E+02  0.445366E-06  0.147550E-06
  0.236341E+02  0.908049E+02  0.304126E-06  0.882486E-07
  0.236341E+02  0.932927E+02  0.239357E-06  0.557488E-07
  0.236341E+02  0.957805E+02  0.176415E-06 -0.552532E-08
  0.236341E+02  0.982683E+02  0.133945E-06 -0.433727E-07
  0.236341E+02  0.100756E+03  0.187287E-06 -0.294632E-07
  0.261220E+02  0.124390E+01  0.109597E-06 -0.514124E-08
  0.261220E+02  0.373171E+01  0.223686E-06 -0.251132E-07
  0.261220E+02  0.621951E+01  0.179631E-06 -0.915635E-08
  0.261220E+02  0.870732E+01  0.288549E-06 -0.287386E-07
  0.261220E+02  0.111951E+02  0.511062E-06 -0.100275E-06
  0.261220E+02  0.136829E+02  0.721955E-06 -0.291629E-06
  0.261220E+02  0.161707E+02  0.513839E-06 -0.148958E-06
  0.261220E+02  0.186585E+02  0.273759E-06 -0.488894E-08
  0.261220E+02  0.211463E+02  0.255671E-06 -0.111088E-08
  0.261220E+02  0.236341E+02  0.121405E-06  0.117753E-07
  0.261220E+02  0.261220E+02  0.913114E-07  0.288146E-07
  0.261220E+02  0.286098E+02  0.239991E-06  0.229894E-07
  0.261220E+02  0.310976E+02  0.249931E-06  0.224271E-07
  0.261220E+02  0.335854E+02  0.179311E-06  0.334824E-07
  0.261220E+02  0.360732E+02  0.162370E-06  0.228503E-07
  0.261220E+02  0.385610E+02  0.307989E-06  0.867258E-07
  0.261220E+02  0.410488E+02  0.272987E-06  0.977882E-07
  0.261220E+02  0.435366E+02  0.301765E-06  0.124077E-06
  0.261220E+02  0.460244E+02  0.683488E-07  0.524350E-07
  0.261220E+02  0.485122E+02  0.110066E-06  0.656985E-07
  0.261220E+02  0.510000E+02  0.892478E-07  0.570269E-07
  0.261220E+02  0.534878E+02  0.120900E-06  0.710538E-07
  0.261220E+02  0.559756E+02  0.645043E-07  0.285884E-07
  0.261220E+02  0.584634E+02  0.215114E-06  0.447667E-07
  0.261220E+02  0.609512E+02  0.552151E-06  0.786218E-07
  0.261220E+02  0.634390E+02  0.130203E-05  0.175936E-06
  0.261220E+02  0.659268E+02  0.683617E-06  0.167985E-06
  0.261220E+02  0.684146E+02  0.476615E-06  0.180076E-06
  0.261220E+02  0.709024E+02  0.264338E-06  0.164843E-06
  0.261220E+02  0.733902E+02  0.201542E-06  0.202601E-06
  0.261220E+02  0.758780E+02  0.399647E-06  0.345553E-06
  0.261220E+02  0.783659E+02  0.484102E-06  0.253958E-06
  0.261220E+02  0.808537E+02  0.761705E-06  0.268180E-06
  0.261220E+02  0.833415E+02  0.241939E-06  0.129441E-06
  0.261220E+02  0.858293E+02  0.265853E-06  0.954635E-07
  0.261220E+02  0.883171E+02  0.416889E-06  0.866049E-07
  0.261220E+02  0.908049E+02  0.446724E-06  0.671278E-07
  0.261220E+02  0.932927E+02  0.336730E-06  0.459929E-07
  0.261220E+02  0.957805E+02  0.247619E-06  0.304613E-07
  0.261220E+02  0.982683E+02  0.179536E-06 -0.115681E-07
  0.261220E+02  0.100756E+03  0.755733E-07 -0.111371E-07
  0.286098E+02  0.124390E+01  0.141399E-06 -0.155416E-07
  0.286098E+02  0.373171E+01  0.197002E-06 -0.368908E-07
  0.286098E+02  0.621951E+01  0.204638E-06 -0.305932E-07
  0.286098E+02  0.870732E+01  0.332809E-06 -0.842048E-07
  0.286098E+02  0.111951E+02  0.482014E-06 -0.184536E-06
  0.286098E+02  0.136829E+02  0.711409E-06 -0.252700E-06
  0.286098E+02  0.161707E+02  0.256050E-06 -0.104689E-06
  0.286098E+02  0.186585E+02  0.263046E-06 -0.385392E-07
  0.286098E+02  0.211463E+02  0.186677E-06 -0.103842E-08
  0.286098E+02  0.236341E+02  0.790278E-07  0.320129E-08
  0.286098E+02  0.261220E+02  0.603341E-07  0.726999E-08
  0.286098E+02  0.286098E+02  0.287702E-06  0.378151E-07
  0.286098E+02  0.310976E+02  0.184534E-06  0.322641E-07
  0.286098E+02  0.335854E+02  0.141503E-06  0.341337E-07
  0.286098E+02  0.360732E+02  0.263472E-06  0.304602E-07
  0.286098E+02  0.385610E+02  0.149304E-06  0.206214E-07
  0.286098E+02  0.410488E+02  0.399496E-06  0.846067E-07
  0.286098E+02  0.435366E+02  0.144908E-06  0.620175E-07
  0.286098E+02  0.460244E+02  0.111680E-06  0.675443E-07
  0.286098E+02  0.485122E+02  0.100969E-06  0.655481E-07
  0.286098E+02  0.510000E+02  0.206305E-06  0.165985E-06
  0.286098E+02  0.534878E+02  0.127972E-06  0.109412E-06
  0.286098E+02  0.559756E+02  0.148366E-06  0.714549E-07
  0.286098E+02  0.584634E+02  0.217428E-06  0.364529E-07
  0.286098E+02  0.609512E+02  0.536463E-06  0.276681E-08
  0.286098E+02  0.634390E+02  0.635550E-06  0.122093E-06
  0.286098E+02  0.659268E+02  0.793592E-06  0.331693E-06
  0.286098E+02  0.684146E+02  0.222439E-06  0.133325E-06
  0.286098E+02  0.709024E+02  0.161087E-06  0.139593E-06
  0.286098E+02  0.733902E+02  0.279380E-06  0.261793E-06
  0.286098E+02  0.758780E+02  0.343692E-06  0.231661E-06
  0.286098E+02  0.783659E+02  0.517741E-06  0.231490E-06
  0.286098E+02  0.808537E+02  0.393647E-06  0.139531E-06
  0.286098E+02  0.833415E+02  0.259364E-06  0.120797E-06
  0.286098E+02  0.858293E+02  0.990541E-07  0.281123E-07
  0.286098E+02  0.883171E+02  0.205575E-06  0.335889E-07
  0.286098E+02  0.908049E+02  0.520012E-06  0.479333E-07
  0.286098E+02  0.932927E+02  0.443303E-06  0.331760E-07
  0.286098E+02  0.957805E+02  0.193006E-06  0.284660E-07
  0.286098E+02  0.982683E+02  0.324988E-06  0.403830E-07
  0.286098E+02  0.100756E+03  0.906835E-07  0.582250E-08
  0.310976E+02  0.124390E+01  0.162499E-06 -0.234346E-08
  0.310976E+02  0.373171E+01  0.158500E-06 -0.194741E-07
  0.310976E+02  0.621951E+01  0.270338E-06 -0.720827E-07
  0.310976E+02  0.870732E+01  0.506310E-06 -0.221834E-06
  0.310976E+02  0.111951E+02  0.567437E-06 -0.353534E-06
  0.310976E+02  0.136829E+02  0.368410E-06 -0.206324E-06
  0.310976E+02  0.161707E+02  0.121106E-06 -0.459421E-07
  0.310976E+02  0.186585E+02  0.140303E-06 -0.316679E-07
  0.310976E+02  0.211463E+02  0.321348E-06  0.148867E-07
  0.310976E+02  0.236341E+02  0.974220E-07  0.790267E-08
  0.310976E+02  0.261220E+02  0.129740E-06  0.565877E-09
  0.310976E+02  0.286098E+02  0.262395E-06  0.453854E-07
  0.310976E+02  0.310976E+02  0.326544E-06  0.910072E-07
  0.310976E+02  0.335854E+02  0.153648E-06  0.281386E-07
  0.310976E+02  0.360732E+02  0.308103E-06  0.297614E-07
  0.310976E+02  0.385610E+02  0.181185E-06  0.212399E-07
  0.310976E+02  0.410488E+02  0.186393E-06  0.376233E-07
  0.310976E+02  0.435366E+02  0.206081E-06  0.913158E-07
  0.310976E+02  0.460244E+02  0.138443E-06  0.672689E-07
  0.310976E+02  0.485122E+02  0.108270E-06  0.530350E-07
  0.310976E+02  0.510000E+02  0.907862E-07  0.462295E-07
  0.310976E+02  0.534878E+02  0.117503E-06  0.725944E-07
  0.310976E+02  0.559756E+02  0.222845E-06  0.129524E-06
  0.310976E+02  0.584634E+02  0.328786E-06  0.153353E-06
  0.310976E+02  0.609512E+02  0.490201E-06  0.121747E-06
  0.310976E+02  0.634390E+02  0.408471E-06  0.120969E-06
  0.310976E+02  0.659268E+02  0.430443E-06  0.162397E-06
  0.310976E+02  0.684146E+02  0.208928E-06  0.118185E-06
  0.310976E+02  0.709024E+02  0.825977E-07  0.495437E-07
  0.310976E+02  0.733902E+02  0.204601E-06  0.120173E-06
  0.310976E+02  0.758780E+02  0.444351E-06  0.204505E-06
  0.310976E+02  0.783659E+02  0.497798E-06  0.220311E-06