title="2d vectors xz, t=    0.150E+03"
variables="x","z","vx","vz"
zone i=    21, j=    41, T="   0.150E+03"
  0.124390E+01  0.488041E+00  0.183067E-06 -0.812996E-08
  0.124390E+01  0.146412E+01  0.117080E-06 -0.189698E-07
  0.124390E+01  0.244021E+01  0.177864E-06 -0.112823E-07
  0.124390E+01  0.341629E+01  0.737940E-07 -0.131857E-07
  0.124390E+01  0.439237E+01  0.196640E-06 -0.314960E-07
  0.124390E+01  0.536845E+01  0.333142E-06 -0.329962E-07
  0.124390E+01  0.634454E+01  0.494296E-06 -0.526177E-07
  0.124390E+01  0.732062E+01  0.940547E-06 -0.401828E-07
  0.124390E+01  0.829670E+01  0.742929E-06  0.422120E-07
  0.124390E+01  0.927278E+01  0.128778E-06  0.293182E-07
  0.124390E+01  0.102489E+02  0.139700E-06  0.637750E-08
  0.124390E+01  0.112249E+02  0.237785E-09  0.170718E-09
  0.124390E+01  0.122010E+02  0.222134E-09  0.118815E-09
  0.124390E+01  0.131771E+02  0.184567E-09  0.642666E-10
  0.124390E+01  0.141532E+02  0.130348E-08  0.354309E-09
  0.124390E+01  0.151293E+02  0.467515E-08 -0.504854E-09
  0.124390E+01  0.161054E+02  0.320298E-06 -0.247217E-07
  0.124390E+01  0.170814E+02  0.340014E-06 -0.201426E-08
  0.124390E+01  0.180575E+02  0.355742E-06  0.106792E-07
  0.124390E+01  0.190336E+02  0.332722E-06 -0.144920E-08
  0.124390E+01  0.200097E+02  0.252866E-06  0.438490E-07
  0.373171E+01  0.487824E+00  0.285373E-06 -0.218912E-07
  0.373171E+01  0.146347E+01  0.880676E-07 -0.313596E-07
  0.373171E+01  0.243912E+01  0.117971E-06 -0.199110E-07
  0.373171E+01  0.341477E+01  0.103991E-06 -0.200911E-07
  0.373171E+01  0.439042E+01  0.847050E-07 -0.232881E-07
  0.373171E+01  0.536607E+01  0.204211E-06 -0.315189E-07
  0.373171E+01  0.634172E+01  0.330440E-06 -0.250481E-07
  0.373171E+01  0.731736E+01  0.616473E-06  0.212511E-07
  0.373171E+01  0.829301E+01  0.280175E-06  0.294321E-07
  0.373171E+01  0.926866E+01  0.264598E-06  0.316990E-07
  0.373171E+01  0.102443E+02  0.140172E-06  0.272957E-08
  0.373171E+01  0.112200E+02  0.171523E-09  0.350507E-09
  0.373171E+01  0.121956E+02  0.341363E-09  0.311545E-09
  0.373171E+01  0.131713E+02  0.352888E-09  0.354775E-09
  0.373171E+01  0.141469E+02  0.412469E-09  0.271773E-09
  0.373171E+01  0.151226E+02  0.209996E-06 -0.407985E-07
  0.373171E+01  0.160982E+02  0.202840E-06 -0.445157E-07
  0.373171E+01  0.170738E+02  0.293337E-06 -0.488838E-07
  0.373171E+01  0.180495E+02  0.311294E-06 -0.384561E-07
  0.373171E+01  0.190251E+02  0.497792E-06 -0.294457E-07
  0.373171E+01  0.200008E+02  0.246983E-06 -0.401970E-07
  0.621951E+01  0.487670E+00  0.292046E-06  0.573360E-08
  0.621951E+01  0.146301E+01  0.592430E-07 -0.284286E-08
  0.621951E+01  0.243835E+01  0.539322E-07 -0.762268E-08
  0.621951E+01  0.341369E+01  0.124425E-06 -0.436541E-08
  0.621951E+01  0.438903E+01  0.121342E-06 -0.176462E-07
  0.621951E+01  0.536437E+01  0.111219E-06 -0.161263E-07
  0.621951E+01  0.633971E+01  0.242141E-06 -0.467380E-08
  0.621951E+01  0.731505E+01  0.320487E-06  0.632429E-08
  0.621951E+01  0.829039E+01  0.331461E-06  0.172743E-07
  0.621951E+01  0.926573E+01  0.202371E-06  0.177582E-08
  0.621951E+01  0.102411E+02  0.973162E-07  0.947361E-09
  0.621951E+01  0.112164E+02  0.172281E-09  0.640526E-09
  0.621951E+01  0.121917E+02  0.410509E-09  0.669835E-09
  0.621951E+01  0.131671E+02  0.289190E-09  0.603290E-09
  0.621951E+01  0.141424E+02  0.591860E-09  0.830759E-09
  0.621951E+01  0.151178E+02  0.365166E-06 -0.216466E-07
  0.621951E+01  0.160931E+02  0.343978E-06 -0.739626E-07
  0.621951E+01  0.170684E+02  0.310477E-06 -0.100732E-06
  0.621951E+01  0.180438E+02  0.264992E-06 -0.861842E-07
  0.621951E+01  0.190191E+02  0.345237E-06 -0.578291E-07
  0.621951E+01  0.199945E+02  0.243561E-06 -0.563272E-08
  0.870732E+01  0.487475E+00  0.143200E-06  0.490219E-08
  0.870732E+01  0.146242E+01  0.849267E-07  0.112672E-07
  0.870732E+01  0.243737E+01  0.358308E-07  0.414315E-09
  0.870732E+01  0.341232E+01  0.982272E-07 -0.250844E-08
  0.870732E+01  0.438727E+01  0.151744E-06 -0.272373E-08
  0.870732E+01  0.536222E+01  0.830607E-07 -0.123256E-07
  0.870732E+01  0.633717E+01  0.239355E-06 -0.290071E-07
  0.870732E+01  0.731212E+01  0.292574E-06 -0.217984E-07
  0.870732E+01  0.828707E+01  0.211918E-06 -0.318271E-09
  0.870732E+01  0.926202E+01  0.218734E-06  0.167407E-07
  0.870732E+01  0.102370E+02  0.113489E-06  0.902031E-08
  0.870732E+01  0.112119E+02  0.215812E-09  0.463134E-09
  0.870732E+01  0.121869E+02  0.347788E-09  0.626509E-09
  0.870732E+01  0.131618E+02  0.365305E-09  0.858430E-09
  0.870732E+01  0.141368E+02  0.146890E-09  0.553545E-09
  0.870732E+01  0.151117E+02  0.725436E-06 -0.469178E-07
  0.870732E+01  0.160867E+02  0.553988E-06 -0.100333E-06
  0.870732E+01  0.170616E+02  0.237230E-06 -0.747579E-07
  0.870732E+01  0.180366E+02  0.302998E-06 -0.662771E-07
  0.870732E+01  0.190115E+02  0.138376E-06 -0.175280E-07
  0.870732E+01  0.199865E+02  0.318061E-06 -0.178273E-07
  0.111951E+02  0.487274E+00  0.135234E-06 -0.284897E-08
  0.111951E+02  0.146182E+01  0.499622E-07 -0.103761E-08
  0.111951E+02  0.243637E+01  0.812290E-07  0.516570E-08
  0.111951E+02  0.341091E+01  0.730183E-07  0.451527E-08
  0.111951E+02  0.438546E+01  0.207796E-06  0.304189E-08
  0.111951E+02  0.536001E+01  0.191778E-06 -0.209374E-07
  0.111951E+02  0.633456E+01  0.248127E-06 -0.332575E-07
  0.111951E+02  0.730910E+01  0.249623E-06 -0.189389E-07
  0.111951E+02  0.828365E+01  0.255524E-06 -0.252195E-08
  0.111951E+02  0.925820E+01  0.208730E-06  0.794262E-08
  0.111951E+02  0.102327E+02  0.181579E-06  0.524206E-08
  0.111951E+02  0.112073E+02  0.847363E-09  0.835394E-09
  0.111951E+02  0.121818E+02  0.617741E-09  0.519061E-09
  0.111951E+02  0.131564E+02  0.192756E-09  0.225538E-09
  0.111951E+02  0.141309E+02  0.103812E-09  0.289461E-09
  0.111951E+02  0.151055E+02  0.137167E-05 -0.700728E-07
  0.111951E+02  0.160800E+02  0.678208E-06 -0.606829E-07
  0.111951E+02  0.170546E+02  0.365524E-06  0.248004E-07
  0.111951E+02  0.180291E+02  0.249964E-06  0.507482E-07
  0.111951E+02  0.190037E+02  0.300517E-06  0.230568E-07
  0.111951E+02  0.199782E+02  0.318255E-06 -0.789593E-08
  0.136829E+02  0.487100E+00  0.137681E-06 -0.356056E-08
  0.136829E+02  0.146130E+01  0.567536E-07 -0.660669E-08
  0.136829E+02  0.243550E+01  0.771732E-07 -0.925657E-08
  0.136829E+02  0.340970E+01  0.104856E-06 -0.949278E-08
  0.136829E+02  0.438390E+01  0.231174E-06 -0.413323E-08
  0.136829E+02  0.535810E+01  0.235046E-06  0.691605E-08
  0.136829E+02  0.633230E+01  0.219420E-06  0.208040E-07
  0.136829E+02  0.730650E+01  0.276779E-06 -0.894100E-09
  0.136829E+02  0.828070E+01  0.196109E-06 -0.161905E-07
  0.136829E+02  0.925490E+01  0.172505E-06 -0.147318E-07
  0.136829E+02  0.102291E+02  0.127946E-06 -0.492567E-08
  0.136829E+02  0.112033E+02  0.420897E-08  0.225865E-08
  0.136829E+02  0.121775E+02  0.195043E-08  0.131977E-08
  0.136829E+02  0.131517E+02  0.705306E-09  0.587265E-09
  0.136829E+02  0.141259E+02  0.204233E-09  0.264618E-09
  0.136829E+02  0.151001E+02  0.151005E-05  0.108510E-06
  0.136829E+02  0.160743E+02  0.327336E-06  0.153545E-06
  0.136829E+02  0.170485E+02  0.281813E-06  0.190119E-06
  0.136829E+02  0.180227E+02  0.279893E-06  0.172510E-06
  0.136829E+02  0.189969E+02  0.494094E-06  0.165833E-06
  0.136829E+02  0.199711E+02  0.586291E-06  0.475677E-07
  0.161707E+02  0.486963E+00  0.157384E-06  0.115209E-08
  0.161707E+02  0.146089E+01  0.854922E-07 -0.525539E-08
  0.161707E+02  0.243481E+01  0.850848E-07 -0.177382E-07
  0.161707E+02  0.340874E+01  0.848033E-07 -0.217162E-07
  0.161707E+02  0.438266E+01  0.157127E-06 -0.110029E-07
  0.161707E+02  0.535659E+01  0.144998E-06  0.816674E-08
  0.161707E+02  0.633051E+01  0.152954E-06  0.182058E-07
  0.161707E+02  0.730444E+01  0.402248E-06  0.199401E-07
  0.161707E+02  0.827837E+01  0.251909E-06 -0.525555E-08
  0.161707E+02  0.925229E+01  0.120250E-06 -0.688836E-08
  0.161707E+02  0.102262E+02  0.106616E-06 -0.225101E-08
  0.161707E+02  0.112001E+02  0.173775E-08  0.506783E-09
  0.161707E+02  0.121741E+02  0.247097E-08  0.120815E-08
  0.161707E+02  0.131480E+02  0.161144E-08  0.601211E-09
  0.161707E+02  0.141219E+02  0.653629E-09  0.243233E-10
  0.161707E+02  0.150958E+02  0.726018E-06  0.624093E-07
  0.161707E+02  0.160698E+02  0.472423E-06  0.197729E-06
  0.161707E+02  0.170437E+02  0.264797E-06  0.153616E-06
  0.161707E+02  0.180176E+02  0.323118E-06  0.207703E-06
  0.161707E+02  0.189915E+02  0.485227E-06  0.212022E-06
  0.161707E+02  0.199655E+02  0.131932E-05  0.127060E-06
  0.186585E+02  0.486871E+00  0.156669E-06 -0.334288E-08
  0.186585E+02  0.146061E+01  0.779407E-07  0.942638E-09
  0.186585E+02  0.243436E+01  0.112065E-06  0.134228E-07
  0.186585E+02  0.340810E+01  0.996044E-07  0.271647E-08
  0.186585E+02  0.438184E+01  0.737686E-07 -0.138700E-09
  0.186585E+02  0.535558E+01  0.154041E-06 -0.137357E-08
  0.186585E+02  0.632933E+01  0.179362E-06 -0.132367E-07
  0.186585E+02  0.730307E+01  0.230502E-06  0.350396E-08
  0.186585E+02  0.827681E+01  0.188869E-06  0.195209E-07
  0.186585E+02  0.925056E+01  0.136838E-06  0.117338E-07
  0.186585E+02  0.102243E+02  0.834156E-07  0.196839E-08
  0.186585E+02  0.111980E+02  0.108737E-08  0.645540E-09
  0.186585E+02  0.121718E+02  0.214068E-08  0.974399E-09
  0.186585E+02  0.131455E+02  0.152530E-08  0.594021E-09
  0.186585E+02  0.141193E+02  0.189843E-08  0.562873E-09
  0.186585E+02  0.150930E+02  0.560716E-06 -0.753804E-08
  0.186585E+02  0.160668E+02  0.334093E-06 -0.140435E-07
  0.186585E+02  0.170405E+02  0.439005E-06  0.230380E-07
  0.186585E+02  0.180142E+02  0.150392E-06 -0.853437E-09
  0.186585E+02  0.189880E+02  0.462149E-06 -0.483540E-08
  0.186585E+02  0.199617E+02  0.133272E-05 -0.358782E-07
  0.211463E+02  0.486797E+00  0.222381E-06  0.163432E-07
  0.211463E+02  0.146039E+01  0.533404E-07  0.760897E-08
  0.211463E+02  0.243398E+01  0.424380E-07  0.846394E-08
  0.211463E+02  0.340758E+01  0.111750E-06  0.297607E-07
  0.211463E+02  0.438117E+01  0.114653E-06  0.233256E-07
  0.211463E+02  0.535476E+01  0.182807E-06  0.124657E-07
  0.211463E+02  0.632836E+01  0.209447E-06  0.892824E-08
  0.211463E+02  0.730195E+01  0.254710E-06  0.476752E-08
  0.211463E+02  0.827554E+01  0.244323E-06  0.849993E-08
  0.211463E+02  0.924913E+01  0.192552E-06  0.150130E-07
  0.211463E+02  0.102227E+02  0.140902E-06  0.805535E-08
  0.211463E+02  0.111963E+02  0.936717E-09  0.135069E-08
  0.211463E+02  0.121699E+02  0.686472E-09  0.136851E-08
  0.211463E+02  0.131435E+02  0.111894E-08  0.156434E-08
  0.211463E+02  0.141171E+02  0.747128E-09  0.139614E-08
  0.211463E+02  0.150907E+02  0.581953E-06 -0.675820E-08
  0.211463E+02  0.160643E+02  0.229916E-06 -0.334465E-07
  0.211463E+02  0.170379E+02  0.296790E-06 -0.537498E-07
  0.211463E+02  0.180115E+02  0.160422E-06 -0.462886E-07
  0.211463E+02  0.189851E+02  0.385517E-06 -0.481253E-07
  0.211463E+02  0.199587E+02  0.796486E-06 -0.299591E-07
  0.236341E+02  0.486595E+00  0.101091E-06  0.346489E-08
  0.236341E+02  0.145978E+01  0.164220E-06  0.256335E-07
  0.236341E+02  0.243297E+01  0.819271E-07  0.321634E-08
  0.236341E+02  0.340616E+01  0.113234E-06 -0.141468E-07
  0.236341E+02  0.437935E+01  0.119912E-06 -0.109412E-07
  0.236341E+02  0.535254E+01  0.246172E-06 -0.102678E-07
  0.236341E+02  0.632573E+01  0.219430E-06 -0.125858E-07
  0.236341E+02  0.729892E+01  0.440723E-06 -0.427688E-07
  0.236341E+02  0.827211E+01  0.266408E-06 -0.291230E-07
  0.236341E+02  0.924530E+01  0.401376E-06 -0.201179E-07
  0.236341E+02  0.102185E+02  0.229072E-06 -0.108196E-07
  0.236341E+02  0.111917E+02  0.115314E-08  0.176757E-08
  0.236341E+02  0.121649E+02  0.280174E-09  0.136652E-08
  0.236341E+02  0.131381E+02  0.155242E-09  0.991025E-09
  0.236341E+02  0.141113E+02  0.175936E-09  0.934625E-09
  0.236341E+02  0.150844E+02  0.458029E-06  0.111872E-07
  0.236341E+02  0.160576E+02  0.372120E-06  0.150207E-07
  0.236341E+02  0.170308E+02  0.198562E-06  0.523129E-08
  0.236341E+02  0.180040E+02  0.887691E-07 -0.750699E-08
  0.236341E+02  0.189772E+02  0.247169E-06 -0.238727E-07
  0.236341E+02  0.199504E+02  0.503662E-06 -0.265453E-07
  0.261220E+02  0.486359E+00  0.109597E-06 -0.231826E-08
  0.261220E+02  0.145908E+01  0.866986E-07 -0.203032E-08
  0.261220E+02  0.243180E+01  0.232866E-06 -0.118311E-07
  0.261220E+02  0.340452E+01  0.123580E-06 -0.307703E-07
  0.261220E+02  0.437723E+01  0.229738E-06 -0.611062E-07
  0.261220E+02  0.534995E+01  0.200423E-06 -0.602343E-07
  0.261220E+02  0.632267E+01  0.326181E-06 -0.602525E-07
  0.261220E+02  0.729539E+01  0.445052E-06 -0.582155E-07
  0.261220E+02  0.826811E+01  0.296962E-06 -0.531405E-07
  0.261220E+02  0.924083E+01  0.403393E-06 -0.228964E-07
  0.261220E+02  0.102135E+02  0.261500E-06  0.851538E-08
  0.261220E+02  0.111863E+02  0.285629E-08  0.110867E-08
  0.261220E+02  0.121590E+02  0.178080E-09  0.172319E-09
  0.261220E+02  0.131317E+02  0.178724E-09  0.284523E-09
  0.261220E+02  0.141044E+02  0.317440E-10  0.157340E-09
  0.261220E+02  0.150771E+02  0.418915E-06  0.172497E-07
  0.261220E+02  0.160499E+02  0.242627E-06  0.316415E-07
  0.261220E+02  0.170226E+02  0.187390E-06  0.343755E-07
  0.261220E+02  0.179953E+02  0.195299E-06  0.103715E-07
  0.261220E+02  0.189680E+02  0.219956E-06 -0.206564E-07
  0.261220E+02  0.199407E+02  0.379500E-06 -0.278232E-07
  0.286098E+02  0.486140E+00  0.141399E-06  0.543070E-08
  0.286098E+02  0.145842E+01  0.193876E-06 -0.212007E-07
  0.286098E+02  0.243070E+01  0.228750E-06 -0.558638E-07
  0.286098E+02  0.340298E+01  0.195271E-06 -0.524297E-07
  0.286098E+02  0.437526E+01  0.234008E-06 -0.755582E-07
  0.286098E+02  0.534754E+01  0.211179E-06 -0.954996E-07
  0.286098E+02  0.631982E+01  0.361479E-06 -0.109606E-06
  0.286098E+02  0.729209E+01  0.469629E-06 -0.884919E-07
  0.286098E+02  0.826437E+01  0.393082E-06 -0.440032E-07
  0.286098E+02  0.923665E+01  0.151475E-06  0.139901E-07
  0.286098E+02  0.102089E+02  0.455367E-06  0.253538E-07
  0.286098E+02  0.111812E+02  0.560992E-08  0.171246E-08
  0.286098E+02  0.121535E+02  0.906925E-09  0.609208E-09
  0.286098E+02  0.131258E+02  0.156809E-09  0.389885E-09
  0.286098E+02  0.140980E+02  0.700698E-10  0.343551E-09
  0.286098E+02  0.150703E+02  0.261062E-06  0.941382E-08
  0.286098E+02  0.160426E+02  0.206938E-06  0.295870E-07
  0.286098E+02  0.170149E+02  0.172471E-06  0.210827E-07
  0.286098E+02  0.179872E+02  0.198474E-06 -0.446267E-08
  0.286098E+02  0.189594E+02  0.281800E-06 -0.169847E-07
  0.286098E+02  0.199317E+02  0.332327E-06 -0.183403E-07
  0.310976E+02  0.485961E+00  0.162499E-06 -0.111992E-07
  0.310976E+02  0.145788E+01  0.413625E-06 -0.547335E-07
  0.310976E+02  0.242981E+01  0.148538E-06 -0.390371E-07
  0.310976E+02  0.340173E+01  0.224809E-06 -0.395477E-07
  0.310976E+02  0.437365E+01  0.273448E-06 -0.201504E-07
  0.310976E+02  0.534557E+01  0.289488E-06 -0.311888E-07
  0.310976E+02  0.631750E+01  0.295804E-06 -0.372165E-07
  0.310976E+02  0.728942E+01  0.372530E-06 -0.138048E-07
  0.310976E+02  0.826134E+01  0.166093E-06  0.289447E-07
  0.310976E+02  0.923326E+01  0.215827E-06  0.197413E-07
  0.310976E+02  0.102052E+02  0.453091E-06 -0.202034E-08
  0.310976E+02  0.111771E+02  0.264243E-08  0.670777E-09
  0.310976E+02  0.121490E+02  0.286203E-08  0.192345E-08
  0.310976E+02  0.131210E+02  0.321662E-09  0.551499E-09
  0.310976E+02  0.140929E+02  0.113321E-09  0.324355E-09
  0.310976E+02  0.150648E+02  0.197703E-06 -0.912580E-08
  0.310976E+02  0.160367E+02  0.106402E-06 -0.209253E-07
  0.310976E+02  0.170086E+02  0.146712E-06 -0.183280E-07
  0.310976E+02  0.179806E+02  0.177372E-06  0.114326E-08
  0.310976E+02  0.189525E+02  0.259613E-06 -0.718372E-08
  0.310976E+02  0.199244E+02  0.348784E-06 -0.246943E-07
  0.335854E+02  0.485704E+00  0.285456E-06 -0.170545E-07
  0.335854E+02  0.145711E+01  0.262957E-06  0.108820E-07
  0.335854E+02  0.242852E+01  0.247210E-06  0.131971E-08
  0.335854E+02  0.339993E+01  0.159588E-06  0.131729E-07
  0.335854E+02  0.437133E+01  0.135670E-06  0.479495E-07
  0.335854E+02  0.534274E+01  0.409740E-06  0.542341E-07
  0.335854E+02  0.631415E+01  0.325203E-06  0.106970E-07
  0.335854E+02  0.728556E+01  0.202271E-06  0.122123E-07
  0.335854E+02  0.825697E+01  0.105333E-06  0.350230E-07
  0.335854E+02  0.922837E+01  0.373472E-06  0.154220E-07
  0.335854E+02  0.101998E+02  0.388224E-06 -0.130888E-07
  0.335854E+02  0.111712E+02  0.291368E-08  0.307559E-08
  0.335854E+02  0.121426E+02  0.693660E-09  0.147004E-08
  0.335854E+02  0.131140E+02  0.107076E-08  0.204264E-08
  0.335854E+02  0.140854E+02  0.692297E-09  0.210532E-08
  0.335854E+02  0.150568E+02  0.238223E-06 -0.587164E-08
  0.335854E+02  0.160282E+02  0.115890E-06 -0.178264E-07
  0.335854E+02  0.169996E+02  0.875603E-07 -0.126387E-07
  0.335854E+02  0.179710E+02  0.921270E-07 -0.157131E-07
  0.335854E+02  0.189424E+02  0.363698E-06  0.192491E-08
  0.335854E+02  0.199139E+02  0.267343E-06 -0.269416E-08
  0.360732E+02  0.485274E+00  0.246035E-06  0.236142E-07
  0.360732E+02  0.145582E+01  0.242542E-06  0.534374E-07
  0.360732E+02  0.242637E+01  0.485595E-06  0.106593E-06
  0.360732E+02  0.339692E+01  0.133606E-06  0.769628E-07
  0.360732E+02  0.436747E+01  0.133518E-06  0.632214E-07
  0.360732E+02  0.533802E+01  0.599708E-06  0.579646E-07
  0.360732E+02  0.630857E+01  0.419292E-06  0.292816E-07
  0.360732E+02  0.727912E+01  0.125758E-06  0.159298E-07
  0.360732E+02  0.824967E+01  0.133680E-06  0.865811E-08
  0.360732E+02  0.922021E+01  0.413446E-06  0.362856E-08
  0.360732E+02  0.101908E+02  0.240996E-06  0.524374E-08
  0.360732E+02  0.111613E+02  0.163734E-08  0.337552E-08
  0.360732E+02  0.121319E+02  0.949375E-09  0.353730E-08
  0.360732E+02  0.131024E+02  0.109231E-08  0.278548E-08
  0.360732E+02  0.140730E+02  0.120631E-08  0.272725E-08
  0.360732E+02  0.150435E+02  0.244018E-06  0.398677E-08
  0.360732E+02  0.160141E+02  0.177073E-06 -0.852036E-09
  0.360732E+02  0.169846E+02  0.226987E-06 -0.290796E-07
  0.360732E+02  0.179552E+02  0.108308E-06 -0.387032E-07
  0.360732E+02  0.189257E+02  0.163734E-06 -0.123875E-07
  0.360732E+02  0.198963E+02  0.435692E-06 -0.254232E-08
  0.385610E+02  0.484991E+00  0.246369E-06  0.192278E-07
  0.385610E+02  0.145497E+01  0.305848E-06  0.583790E-07
  0.385610E+02  0.242495E+01  0.351091E-06  0.945174E-07
  0.385610E+02  0.339493E+01  0.205735E-06  0.115944E-06
  0.385610E+02  0.436492E+01  0.402571E-06  0.562384E-07
  0.385610E+02  0.533490E+01  0.562873E-06  0.667644E-07
  0.385610E+02  0.630488E+01  0.420487E-06  0.120521E-06
  0.385610E+02  0.727486E+01  0.237931E-06  0.845380E-07
  0.385610E+02  0.824484E+01  0.265073E-06  0.389334E-07
  0.385610E+02  0.921482E+01  0.297277E-06  0.263125E-07
  0.385610E+02  0.101848E+02  0.522242E-06  0.306789E-07
  0.385610E+02  0.111548E+02  0.123809E-08  0.440102E-08
  0.385610E+02  0.121248E+02  0.887459E-09  0.257929E-08
  0.385610E+02  0.130947E+02  0.908515E-09  0.364735E-08
  0.385610E+02  0.140647E+02  0.148062E-08  0.448707E-08
  0.385610E+02  0.150347E+02  0.562015E-06  0.266749E-09
  0.385610E+02  0.160047E+02  0.368789E-06 -0.201510E-07
  0.385610E+02  0.169747E+02  0.288920E-06 -0.238546E-07
  0.385610E+02  0.179447E+02  0.114198E-06 -0.213515E-07
  0.385610E+02  0.189146E+02  0.202245E-06 -0.550109E-07
  0.385610E+02  0.198846E+02  0.331183E-06 -0.406234E-07
  0.410488E+02  0.484713E+00  0.221265E-06  0.804634E-09
  0.410488E+02  0.145414E+01  0.216594E-06  0.125622E-07
  0.410488E+02  0.242357E+01  0.293886E-06  0.543097E-07
  0.410488E+02  0.339299E+01  0.462108E-06  0.410427E-07
  0.410488E+02  0.436242E+01  0.556233E-06  0.398422E-07
  0.410488E+02  0.533185E+01  0.294063E-06  0.945416E-07
  0.410488E+02  0.630127E+01  0.437768E-06  0.183325E-06
  0.410488E+02  0.727070E+01  0.464707E-06  0.236845E-06
  0.410488E+02  0.824013E+01  0.563733E-06  0.190254E-06
  0.410488E+02  0.920955E+01  0.707814E-06  0.116594E-06
  0.410488E+02  0.101790E+02  0.728048E-06  0.344292E-07
  0.410488E+02  0.111484E+02  0.146876E-08  0.103768E-07
  0.410488E+02  0.121178E+02  0.367345E-08  0.988919E-08
  0.410488E+02  0.130873E+02  0.279502E-08  0.638296E-08
  0.410488E+02  0.140567E+02  0.872647E-09  0.318492E-08
  0.410488E+02  0.150261E+02  0.729236E-06 -0.213928E-07
  0.410488E+02  0.159955E+02  0.609021E-06 -0.554566E-07
  0.410488E+02  0.169650E+02  0.347096E-06 -0.493543E-07
  0.410488E+02  0.179344E+02  0.320772E-06 -0.738534E-07
  0.410488E+02  0.189038E+02  0.160238E-06 -0.524435E-07
  0.410488E+02  0.198732E+02  0.155402E-06 -0.217039E-07
  0.435366E+02  0.484450E+00  0.290301E-06  0.345256E-08
  0.435366E+02  0.145335E+01  0.285722E-06 -0.997536E-08
  0.435366E+02  0.242225E+01  0.144447E-06 -0.113316E-07
  0.435366E+02  0.339115E+01  0.568072E-06  0.418498E-07
  0.435366E+02  0.436005E+01  0.265581E-06  0.573157E-07
  0.435366E+02  0.532895E+01  0.349865E-06  0.874266E-07
  0.435366E+02  0.629785E+01  0.342135E-06  0.708931E-07
  0.435366E+02  0.726675E+01  0.384210E-06  0.103550E-06
  0.435366E+02  0.823565E+01  0.841182E-06  0.166205E-06
  0.435366E+02  0.920455E+01  0.847538E-06  0.166869E-06
  0.435366E+02  0.101734E+02  0.110856E-05  0.911429E-07
  0.435366E+02  0.111423E+02  0.381007E-09  0.334113E-08
  0.435366E+02  0.121112E+02  0.947128E-09  0.246627E-08
  0.435366E+02  0.130801E+02  0.382739E-08  0.604802E-08
  0.435366E+02  0.140490E+02  0.932377E-09  0.379392E-08
  0.435366E+02  0.150179E+02  0.100044E-05 -0.162222E-07
  0.435366E+02  0.159868E+02  0.566931E-06 -0.329159E-07
  0.435366E+02  0.169557E+02  0.409603E-06 -0.453293E-07
  0.435366E+02  0.179246E+02  0.215311E-06 -0.172789E-07
  0.435366E+02  0.188935E+02  0.142316E-06 -0.573991E-08
  0.435366E+02  0.198624E+02  0.169347E-06 -0.933462E-08
  0.460244E+02  0.484158E+00  0.273051E-06  0.326712E-08
  0.460244E+02  0.145248E+01  0.395412E-06  0.538746E-07
  0.460244E+02  0.242079E+01  0.240961E-06  0.958939E-07
  0.460244E+02  0.338911E+01  0.319637E-06  0.686873E-07
  0.460244E+02  0.435743E+01  0.305334E-06  0.695026E-07
  0.460244E+02  0.532574E+01  0.312840E-06  0.498173E-07
  0.460244E+02  0.629406E+01  0.346183E-06  0.407219E-07
  0.460244E+02  0.726238E+01  0.267942E-06  0.170002E-07
  0.460244E+02  0.823069E+01  0.477577E-06 -0.360759E-08
  0.460244E+02  0.919901E+01  0.669522E-06 -0.261663E-07
  0.460244E+02  0.101673E+02  0.121826E-05 -0.287484E-07
  0.460244E+02  0.111356E+02  0.340751E-09  0.126241E-07
  0.460244E+02  0.121040E+02  0.127990E-08  0.122716E-07
  0.460244E+02  0.130723E+02  0.231901E-08  0.819875E-08
  0.460244E+02  0.140406E+02  0.111507E-08  0.677369E-08
  0.460244E+02  0.150089E+02  0.870134E-06  0.559961E-07
  0.460244E+02  0.159772E+02  0.862881E-06  0.112655E-06
  0.460244E+02  0.169455E+02  0.636114E-06  0.780973E-07
  0.460244E+02  0.179139E+02  0.283179E-06  0.358942E-07
  0.460244E+02  0.188822E+02  0.334434E-06  0.166817E-07
  0.460244E+02  0.198505E+02  0.290974E-06 -0.105179E-07
  0.485122E+02  0.484065E+00  0.244034E-06  0.161736E-07
  0.485122E+02  0.145220E+01  0.130233E-06  0.400467E-07
  0.485122E+02  0.242033E+01  0.149300E-06  0.641388E-07
  0.485122E+02  0.338846E+01  0.479031E-06  0.935170E-07
  0.485122E+02  0.435659E+01  0.254785E-06  0.373143E-07
  0.485122E+02  0.532472E+01  0.327698E-06  0.122690E-07
  0.485122E+02  0.629285E+01  0.274627E-06 -0.713021E-08
  0.485122E+02  0.726098E+01  0.287535E-06 -0.238702E-07
  0.485122E+02  0.822911E+01  0.519688E-06 -0.684785E-07
  0.485122E+02  0.919724E+01  0.444302E-06 -0.718997E-07
  0.485122E+02  0.101654E+02  0.640414E-06 -0.173822E-07
  0.485122E+02  0.111335E+02 -0.305595E-09  0.112444E-07
  0.485122E+02  0.121016E+02 -0.162113E-08  0.133030E-07
  0.485122E+02  0.130698E+02  0.298932E-09  0.155582E-07
  0.485122E+02  0.140379E+02  0.112269E-08  0.129035E-07
  0.485122E+02  0.150060E+02  0.703219E-06  0.977230E-07
  0.485122E+02  0.159742E+02  0.757039E-06  0.174001E-06
  0.485122E+02  0.169423E+02  0.779624E-06  0.169261E-06
  0.485122E+02  0.179104E+02  0.476129E-06  0.100786E-06
  0.485122E+02  0.188785E+02  0.352151E-06  0.172604E-07
  0.485122E+02  0.198467E+02  0.248816E-06 -0.127181E-07
  0.510000E+02  0.483973E+00  0.119639E-06  0.128788E-07
  0.510000E+02  0.145192E+01  0.117243E-06  0.412662E-07
  0.510000E+02  0.241987E+01  0.100065E-06  0.268160E-07
  0.510000E+02  0.338781E+01  0.327187E-06  0.404714E-07
  0.510000E+02  0.435576E+01  0.407937E-06  0.267370E-07
  0.510000E+02  0.532371E+01  0.304737E-06 -0.242831E-07
  0.510000E+02  0.629165E+01  0.188987E-06 -0.397955E-07
  0.510000E+02  0.725960E+01  0.176665E-06 -0.543105E-07
  0.510000E+02  0.822754E+01  0.382942E-06 -0.140918E-07
  0.510000E+02  0.919549E+01  0.201377E-06  0.198747E-07
  0.510000E+02  0.101634E+02  0.363648E-06  0.262389E-07
  0.510000E+02  0.111314E+02  0.221534E-08  0.350740E-07
  0.510000E+02  0.120993E+02  0.227646E-08  0.353269E-07
  0.510000E+02  0.130673E+02  0.345734E-08  0.280206E-07
  0.510000E+02  0.140352E+02  0.505901E-08  0.324593E-07
  0.510000E+02  0.150032E+02  0.408766E-06  0.257946E-07
  0.510000E+02  0.159711E+02  0.688606E-06  0.109761E-06
  0.510000E+02  0.169391E+02  0.815469E-06  0.165758E-06
  0.510000E+02  0.179070E+02  0.490149E-06  0.130288E-06
  0.510000E+02  0.188750E+02  0.599609E-06  0.913769E-07
  0.510000E+02  0.198429E+02  0.324968E-06  0.147175E-07
  0.534878E+02  0.483870E+00  0.640931E-07  0.481409E-08
  0.534878E+02  0.145161E+01  0.523750E-07  0.865688E-08
  0.534878E+02  0.241935E+01  0.111484E-06  0.200450E-07
  0.534878E+02  0.338709E+01  0.233360E-06  0.244880E-07
  0.534878E+02  0.435483E+01  0.359288E-06  0.111867E-07
  0.534878E+02  0.532257E+01  0.189591E-06 -0.559303E-08
  0.534878E+02  0.629031E+01  0.147048E-06 -0.125506E-07
  0.534878E+02  0.725805E+01  0.899290E-07 -0.625353E-08
  0.534878E+02  0.822579E+01  0.796339E-07 -0.423862E-09
  0.534878E+02  0.919353E+01  0.113189E-06 -0.165390E-08
  0.534878E+02  0.101613E+02  0.189176E-06  0.940438E-08
  0.534878E+02  0.111290E+02  0.240085E-08  0.223544E-07
  0.534878E+02  0.120967E+02  0.778488E-08  0.275756E-07
  0.534878E+02  0.130645E+02  0.959169E-08  0.304575E-07
  0.534878E+02  0.140322E+02  0.143437E-07  0.403194E-07
  0.534878E+02  0.150000E+02  0.521931E-06  0.173559E-07
  0.534878E+02  0.159677E+02  0.357657E-06 -0.768714E-08
  0.534878E+02  0.169354E+02  0.637258E-06  0.566981E-07
  0.534878E+02  0.179032E+02  0.513501E-06  0.127494E-06
  0.534878E+02  0.188709E+02  0.548925E-06  0.700209E-07
  0.534878E+02  0.198387E+02  0.410160E-06  0.165501E-07
  0.559756E+02  0.483583E+00  0.380199E-07 -0.271771E-09
  0.559756E+02  0.145075E+01  0.601506E-07 -0.254415E-08
  0.559756E+02  0.241791E+01  0.535889E-07 -0.294363E-08
  0.559756E+02  0.338508E+01  0.189260E-06 -0.642883E-08
  0.559756E+02  0.435224E+01  0.201394E-06 -0.549989E-08
  0.559756E+02  0.531941E+01  0.142582E-06  0.624727E-08
  0.559756E+02  0.628657E+01  0.999957E-07  0.156379E-07
  0.559756E+02  0.725374E+01  0.810376E-07  0.100739E-07
  0.559756E+02  0.822090E+01  0.179600E-06 -0.188985E-07
  0.559756E+02  0.918807E+01  0.866608E-07 -0.102552E-07
  0.559756E+02  0.101552E+02  0.850446E-07  0.666549E-08
  0.559756E+02  0.111224E+02  0.113590E-08  0.231269E-07
  0.559756E+02  0.120896E+02  0.416059E-08  0.242027E-07
  0.559756E+02  0.130567E+02  0.807503E-08  0.245491E-07
  0.559756E+02  0.140239E+02  0.763208E-08  0.266613E-07
  0.559756E+02  0.149911E+02  0.508976E-06  0.588464E-08
  0.559756E+02  0.159582E+02  0.511490E-06 -0.357701E-07
  0.559756E+02  0.169254E+02  0.154369E-06 -0.213757E-07
  0.559756E+02  0.178926E+02  0.366424E-06  0.413878E-07
  0.559756E+02  0.188597E+02  0.590799E-06  0.765082E-07
  0.559756E+02  0.198269E+02  0.611073E-06  0.228003E-07
  0.584634E+02  0.483346E+00  0.444995E-07 -0.346749E-08
  0.584634E+02  0.145004E+01  0.595061E-07 -0.124667E-07
  0.584634E+02  0.241673E+01  0.772182E-07 -0.300986E-07
  0.584634E+02  0.338342E+01  0.147780E-06 -0.292092E-07
  0.584634E+02  0.435011E+01  0.148717E-06  0.150347E-08
  0.584634E+02  0.531681E+01  0.100189E-06  0.937264E-08
  0.584634E+02  0.628350E+01  0.995440E-07  0.405430E-08
  0.584634E+02  0.725019E+01  0.172881E-06 -0.138671E-07
  0.584634E+02  0.821688E+01  0.109582E-06 -0.663700E-09
  0.584634E+02  0.918357E+01  0.698921E-07  0.131148E-07
  0.584634E+02  0.101503E+02  0.106722E-06  0.207020E-07
  0.584634E+02  0.111170E+02 -0.359523E-09  0.127517E-07
  0.584634E+02  0.120836E+02 -0.114700E-08  0.203018E-07
  0.584634E+02  0.130503E+02  0.640155E-08  0.303600E-07
  0.584634E+02  0.140170E+02  0.683439E-08  0.199986E-07
  0.584634E+02  0.149837E+02  0.594741E-06  0.245341E-07
  0.584634E+02  0.159504E+02  0.456091E-06 -0.667595E-08
  0.584634E+02  0.169171E+02  0.142388E-06 -0.486532E-07
  0.584634E+02  0.178838E+02  0.147235E-06 -0.674389E-07
  0.584634E+02  0.188505E+02  0.416069E-06 -0.739873E-07
  0.584634E+02  0.198172E+02  0.639642E-06 -0.286459E-07
  0.609512E+02  0.483092E+00  0.131847E-06 -0.187420E-07
  0.609512E+02  0.144928E+01  0.113575E-06 -0.330837E-07
  0.609512E+02  0.241546E+01  0.809292E-07 -0.235260E-07
  0.609512E+02  0.338164E+01  0.108661E-06 -0.131549E-07
  0.609512E+02  0.434783E+01  0.851915E-07 -0.176951E-09
  0.609512E+02  0.531401E+01  0.155039E-06  0.142726E-07
  0.609512E+02  0.628020E+01  0.180355E-06  0.142901E-07
  0.609512E+02  0.724638E+01  0.224400E-06  0.159742E-07
  0.609512E+02  0.821257E+01  0.118856E-06  0.901244E-08
  0.609512E+02  0.917875E+01  0.111771E-06  0.537984E-08
  0.609512E+02  0.101449E+02  0.124480E-06  0.110188E-07
  0.609512E+02  0.111111E+02  0.145981E-08  0.262753E-07
  0.609512E+02  0.120773E+02 -0.823213E-10  0.180851E-07
  0.609512E+02  0.130435E+02  0.117997E-08  0.891538E-08
  0.609512E+02  0.140097E+02  0.122355E-07  0.198532E-07
  0.609512E+02  0.149759E+02  0.470641E-06  0.622142E-09
  0.609512E+02  0.159420E+02  0.733274E-06 -0.512290E-07
  0.609512E+02  0.169082E+02  0.216375E-06 -0.814056E-07
  0.609512E+02  0.178744E+02  0.175727E-06 -0.996628E-07
  0.609512E+02  0.188406E+02  0.246835E-06 -0.928189E-07