variables="x","h","c"
zone i=     42,T= "1dxhc;t= 0.1500E+03y,z:   1   1"
    0.00000E+00    0.50000E+00    0.00000E+00
    0.24878E+01    0.49778E+00    0.34096E-22
    0.49756E+01    0.49612E+00    0.91810E-22
    0.74634E+01    0.49236E+00    0.29326E-21
    0.99512E+01    0.48950E+00    0.55039E-21
    0.12439E+02    0.48591E+00    0.64814E-20
    0.14927E+02    0.48033E+00    0.65442E-19
    0.17415E+02    0.47607E+00    0.52437E-18
    0.19902E+02    0.46631E+00    0.40921E-17
    0.22390E+02    0.45748E+00    0.32376E-16
    0.24878E+02    0.44921E+00    0.11317E-15
    0.27366E+02    0.43563E+00    0.52912E-15
    0.29854E+02    0.42809E+00    0.21972E-14
    0.32341E+02    0.41766E+00    0.85193E-14
    0.34829E+02    0.40930E+00    0.33666E-13
    0.37317E+02    0.40390E+00    0.93334E-13
    0.39805E+02    0.40083E+00    0.29038E-12
    0.42293E+02    0.39872E+00    0.65716E-12
    0.44780E+02    0.39685E+00    0.14958E-11
    0.47268E+02    0.39367E+00    0.62435E-11
    0.49756E+02    0.38865E+00    0.47119E-10
    0.52244E+02    0.38369E+00    0.28791E-09
    0.54732E+02    0.37778E+00    0.12842E-08
    0.57220E+02    0.37283E+00    0.44678E-08
    0.59707E+02    0.36909E+00    0.94795E-08
    0.62195E+02    0.36313E+00    0.13158E-07
    0.64683E+02    0.35471E+00    0.41058E-07
    0.67171E+02    0.34547E+00    0.17604E-06
    0.69659E+02    0.34235E+00    0.41864E-06
    0.72146E+02    0.33962E+00    0.85542E-06
    0.74634E+02    0.33643E+00    0.31519E-05
    0.77122E+02    0.33283E+00    0.13157E-04
    0.79610E+02    0.32733E+00    0.46756E-04
    0.82098E+02    0.32162E+00    0.27156E-03
    0.84585E+02    0.32093E+00   -0.77885E-03
    0.87073E+02    0.32256E+00    0.23060E-01
    0.89561E+02    0.32652E+00    0.69783E-01
    0.92049E+02    0.33751E+00    0.22714E+00
    0.94537E+02    0.34533E+00    0.34778E+00
    0.97024E+02    0.36428E+00    0.55565E+00
    0.99512E+02    0.39192E+00    0.79990E+00
    0.10200E+03    0.40008E+00    0.10000E+01
zone i=     42,T= "1dxhc;t= 0.1500E+03y,z:   1  12"
    0.00000E+00    0.50000E+00    0.00000E+00
    0.24878E+01    0.49764E+00    0.70096E-23
    0.49756E+01    0.49544E+00    0.21221E-22
    0.74634E+01    0.49293E+00    0.74644E-22
    0.99512E+01    0.48974E+00    0.46121E-21
    0.12439E+02    0.48558E+00    0.28285E-20
    0.14927E+02    0.47982E+00    0.24827E-19
    0.17415E+02    0.47264E+00    0.14367E-18
    0.19902E+02    0.46803E+00    0.58948E-18
    0.22390E+02    0.45965E+00    0.23264E-17
    0.24878E+02    0.45129E+00    0.28714E-17
    0.27366E+02    0.44068E+00   -0.15750E-17
    0.29854E+02    0.43168E+00   -0.36927E-16
    0.32341E+02    0.41981E+00   -0.15109E-15
    0.34829E+02    0.40995E+00   -0.16027E-15
    0.37317E+02    0.40297E+00    0.74558E-15
    0.39805E+02    0.39848E+00    0.72770E-14
    0.42293E+02    0.39694E+00    0.20933E-13
    0.44780E+02    0.39588E+00    0.84588E-13
    0.47268E+02    0.39489E+00   -0.13561E-13
    0.49756E+02    0.39294E+00   -0.25279E-12
    0.52244E+02    0.38858E+00   -0.34054E-11
    0.54732E+02    0.38075E+00   -0.25946E-10
    0.57220E+02    0.37061E+00   -0.46369E-10
    0.59707E+02    0.36453E+00    0.43040E-10
    0.62195E+02    0.35566E+00    0.43238E-09
    0.64683E+02    0.34808E+00   -0.62955E-09
    0.67171E+02    0.34291E+00   -0.11551E-07
    0.69659E+02    0.34048E+00   -0.73306E-07
    0.72146E+02    0.33687E+00   -0.39587E-06
    0.74634E+02    0.33188E+00    0.12662E-05
    0.77122E+02    0.32748E+00    0.58309E-04
    0.79610E+02    0.32373E+00    0.17305E-03
    0.82098E+02    0.31908E+00    0.57569E-03
    0.84585E+02    0.31359E+00    0.12911E-02
    0.87073E+02    0.30853E+00    0.60070E-02
    0.89561E+02    0.30439E+00    0.19167E-01
    0.92049E+02    0.29503E+00    0.25980E-01
    0.94537E+02    0.27285E+00    0.11304E+00
    0.97024E+02    0.24318E+00    0.21598E+00
    0.99512E+02    0.19886E+00    0.53972E+00
    0.10200E+03    0.16002E+00    0.10000E+01
zone i=     42,T= "1dxhc;t= 0.1500E+03y,z:   1  22"
    0.00000E+00    0.49896E+00   -0.43762E-18
    0.24878E+01    0.49564E+00   -0.15999E-17
    0.49756E+01    0.48858E+00   -0.77418E-17
    0.74634E+01    0.48416E+00   -0.49882E-16
    0.99512E+01    0.47904E+00   -0.25092E-15
    0.12439E+02    0.47445E+00   -0.10566E-14
    0.14927E+02    0.46511E+00   -0.43892E-14
    0.17415E+02    0.45592E+00   -0.22129E-13
    0.19902E+02    0.44871E+00   -0.46999E-13
    0.22390E+02    0.43142E+00   -0.16934E-12
    0.24878E+02    0.42129E+00   -0.74795E-12
    0.27366E+02    0.41128E+00   -0.32259E-11
    0.29854E+02    0.39425E+00   -0.12714E-10
    0.32341E+02    0.37364E+00   -0.40565E-10
    0.34829E+02    0.36373E+00   -0.74620E-10
    0.37317E+02    0.34401E+00   -0.20309E-09
    0.39805E+02    0.32162E+00   -0.44372E-09
    0.42293E+02    0.29050E+00   -0.93389E-09
    0.44780E+02    0.27246E+00   -0.16821E-08
    0.47268E+02    0.26382E+00   -0.28253E-08
    0.49756E+02    0.25626E+00   -0.44096E-08
    0.52244E+02    0.24876E+00   -0.59014E-08
    0.54732E+02    0.23899E+00   -0.88702E-08
    0.57220E+02    0.23438E+00   -0.12418E-07
    0.59707E+02    0.22282E+00   -0.23671E-07
    0.62195E+02    0.21570E+00   -0.58108E-07
    0.64683E+02    0.21011E+00   -0.10596E-06
    0.67171E+02    0.20295E+00   -0.26116E-06
    0.69659E+02    0.19811E+00   -0.55595E-06
    0.72146E+02    0.19169E+00   -0.10337E-05
    0.74634E+02    0.18646E+00   -0.16824E-05
    0.77122E+02    0.17762E+00   -0.30357E-05
    0.79610E+02    0.17115E+00   -0.47623E-05
    0.82098E+02    0.15910E+00   -0.72556E-05
    0.84585E+02    0.14265E+00   -0.16094E-04
    0.87073E+02    0.11124E+00   -0.56306E-04
    0.89561E+02    0.80875E-01   -0.12830E-03
    0.92049E+02    0.60728E-01   -0.25686E-03
    0.94537E+02    0.51967E-01   -0.41302E-03
    0.97024E+02    0.40124E-01    0.82719E-03
    0.99512E+02    0.22678E-01   -0.73450E-03
    0.10200E+03    0.44267E-02   -0.13377E-02
zone i=     42,T= "1dxhc;t= 0.3000E+03y,z:   1   1"
    0.00000E+00    0.50000E+00    0.00000E+00
    0.24878E+01    0.49778E+00    0.54109E-19
    0.49756E+01    0.49611E+00    0.13426E-18
    0.74634E+01    0.49235E+00    0.38845E-18
    0.99512E+01    0.48948E+00    0.10288E-17
    0.12439E+02    0.48590E+00    0.10542E-16
    0.14927E+02    0.48030E+00    0.88573E-16
    0.17415E+02    0.47604E+00    0.56491E-15
    0.19902E+02    0.46626E+00    0.35760E-14
    0.22390E+02    0.45742E+00    0.22971E-13
    0.24878E+02    0.44914E+00    0.67999E-13
    0.27366E+02    0.43555E+00    0.27089E-12
    0.29854E+02    0.42800E+00    0.95543E-12
    0.32341E+02    0.41755E+00    0.32150E-11
    0.34829E+02    0.40918E+00    0.11018E-10
    0.37317E+02    0.40377E+00    0.27417E-10
    0.39805E+02    0.40069E+00    0.77659E-10
    0.42293E+02    0.39858E+00    0.16499E-09
    0.44780E+02    0.39670E+00    0.33094E-09
    0.47268E+02    0.39352E+00    0.11191E-08
    0.49756E+02    0.38848E+00    0.66800E-08
    0.52244E+02    0.38350E+00    0.31113E-07
    0.54732E+02    0.37756E+00    0.10978E-06
    0.57220E+02    0.37259E+00    0.33545E-06
    0.59707E+02    0.36882E+00    0.63757E-06
    0.62195E+02    0.36282E+00    0.98251E-06
    0.64683E+02    0.35434E+00    0.27031E-05
    0.67171E+02    0.34506E+00    0.90418E-05
    0.69659E+02    0.34194E+00    0.20287E-04
    0.72146E+02    0.33925E+00    0.46897E-04
    0.74634E+02    0.33625E+00    0.18357E-03
    0.77122E+02    0.33311E+00    0.82746E-03
    0.79610E+02    0.32901E+00    0.61087E-02
    0.82098E+02    0.32896E+00    0.31994E-02
    0.84585E+02    0.33219E+00    0.13153E+00
    0.87073E+02    0.33955E+00    0.24288E+00
    0.89561E+02    0.34614E+00    0.32616E+00
    0.92049E+02    0.35735E+00    0.48141E+00
    0.94537E+02    0.36404E+00    0.57246E+00
    0.97024E+02    0.37813E+00    0.68028E+00
    0.99512E+02    0.39781E+00    0.81562E+00
    0.10200E+03    0.40007E+00    0.10000E+01
zone i=     42,T= "1dxhc;t= 0.3000E+03y,z:   1  12"
    0.00000E+00    0.50000E+00    0.00000E+00
    0.24878E+01    0.49764E+00    0.78117E-20
    0.49756E+01    0.49544E+00    0.24482E-19
    0.74634E+01    0.49292E+00    0.76580E-19
    0.99512E+01    0.48972E+00    0.38498E-18
    0.12439E+02    0.48556E+00    0.18663E-17
    0.14927E+02    0.47979E+00    0.13089E-16
    0.17415E+02    0.47260E+00    0.59900E-16
    0.19902E+02    0.46799E+00    0.20335E-15
    0.22390E+02    0.45960E+00    0.66328E-15
    0.24878E+02    0.45123E+00    0.74767E-15
    0.27366E+02    0.44061E+00    0.99080E-15
    0.29854E+02    0.43159E+00    0.24761E-15
    0.32341E+02    0.41970E+00   -0.59431E-14
    0.34829E+02    0.40983E+00    0.80458E-14
    0.37317E+02    0.40284E+00    0.12412E-12
    0.39805E+02    0.39834E+00    0.66073E-12
    0.42293E+02    0.39680E+00    0.15538E-11
    0.44780E+02    0.39574E+00    0.63946E-11
    0.47268E+02    0.39475E+00    0.22289E-11
    0.49756E+02    0.39279E+00    0.61625E-12
    0.52244E+02    0.38841E+00   -0.30337E-10
    0.54732E+02    0.38055E+00   -0.63864E-10
    0.57220E+02    0.37034E+00   -0.26432E-09
    0.59707E+02    0.36421E+00    0.13646E-08
    0.62195E+02    0.35523E+00    0.76289E-08
    0.64683E+02    0.34754E+00   -0.23803E-07
    0.67171E+02    0.34225E+00   -0.21291E-06
    0.69659E+02    0.33973E+00   -0.86274E-06
    0.72146E+02    0.33591E+00   -0.26127E-05
    0.74634E+02    0.33045E+00    0.29307E-04
    0.77122E+02    0.32542E+00    0.44032E-03
    0.79610E+02    0.32097E+00    0.11007E-02
    0.82098E+02    0.31521E+00    0.29689E-02
    0.84585E+02    0.30811E+00    0.53927E-02
    0.87073E+02    0.30164E+00    0.17594E-01
    0.89561E+02    0.29688E+00    0.37275E-01
    0.92049E+02    0.28697E+00    0.50278E-01
    0.94537E+02    0.26510E+00    0.15107E+00
    0.97024E+02    0.23691E+00    0.25303E+00
    0.99512E+02    0.19571E+00    0.55834E+00
    0.10200E+03    0.16001E+00    0.10000E+01
zone i=     42,T= "1dxhc;t= 0.3000E+03y,z:   1  22"
    0.00000E+00    0.49896E+00   -0.11261E-15
    0.24878E+01    0.49563E+00   -0.27683E-15
    0.49756E+01    0.48857E+00   -0.11169E-14
    0.74634E+01    0.48415E+00   -0.50421E-14
    0.99512E+01    0.47902E+00   -0.17079E-13
    0.12439E+02    0.47443E+00   -0.50760E-13
    0.14927E+02    0.46509E+00   -0.14571E-12
    0.17415E+02    0.45590E+00   -0.46629E-12
    0.19902E+02    0.44868E+00   -0.76523E-12
    0.22390E+02    0.43139E+00   -0.20276E-11
    0.24878E+02    0.42125E+00   -0.48647E-11
    0.27366E+02    0.41123E+00   -0.58552E-11
    0.29854E+02    0.39420E+00    0.13267E-10
    0.32341E+02    0.37358E+00    0.10546E-09
    0.34829E+02    0.36366E+00    0.24459E-09
    0.37317E+02    0.34393E+00    0.82349E-09
    0.39805E+02    0.32154E+00    0.21695E-08
    0.42293E+02    0.29040E+00    0.54809E-08
    0.44780E+02    0.27236E+00    0.11835E-07
    0.47268E+02    0.26372E+00    0.24599E-07
    0.49756E+02    0.25615E+00    0.47064E-07
    0.52244E+02    0.24865E+00    0.73276E-07
    0.54732E+02    0.23888E+00    0.12536E-06
    0.57220E+02    0.23426E+00    0.14246E-06
    0.59707E+02    0.22269E+00    0.87123E-07
    0.62195E+02    0.21557E+00   -0.10186E-06
    0.64683E+02    0.20999E+00   -0.45189E-06
    0.67171E+02    0.20282E+00   -0.11903E-05
    0.69659E+02    0.19798E+00   -0.22154E-05
    0.72146E+02    0.19156E+00   -0.39092E-05
    0.74634E+02    0.18633E+00   -0.64573E-05
    0.77122E+02    0.17749E+00   -0.12032E-04
    0.79610E+02    0.17102E+00   -0.17810E-04
    0.82098E+02    0.15898E+00   -0.28255E-04
    0.84585E+02    0.14253E+00   -0.61845E-04
    0.87073E+02    0.11113E+00   -0.14495E-03
    0.89561E+02    0.80757E-01   -0.23886E-03
    0.92049E+02    0.60609E-01   -0.34815E-03
    0.94537E+02    0.51856E-01   -0.51709E-03
    0.97024E+02    0.40043E-01    0.77206E-03
    0.99512E+02    0.22644E-01   -0.92482E-03
    0.10200E+03    0.44200E-02   -0.20511E-02
zone i=     42,T= "1dxhc;t= 0.4500E+03y,z:   1   1"
    0.00000E+00    0.50000E+00    0.00000E+00
    0.24878E+01    0.49778E+00    0.73342E-17
    0.49756E+01    0.49612E+00    0.18422E-16
    0.74634E+01    0.49236E+00    0.51179E-16
    0.99512E+01    0.48950E+00    0.16329E-15
    0.12439E+02    0.48591E+00    0.14122E-14
    0.14927E+02    0.48033E+00    0.99855E-14
    0.17415E+02    0.47607E+00    0.53046E-13
    0.19902E+02    0.46631E+00    0.28409E-12
    0.22390E+02    0.45748E+00    0.15369E-11
    0.24878E+02    0.44921E+00    0.40020E-11
    0.27366E+02    0.43564E+00    0.14009E-10
    0.29854E+02    0.42810E+00    0.43249E-10
    0.32341E+02    0.41766E+00    0.12941E-09
    0.34829E+02    0.40931E+00    0.39222E-09
    0.37317E+02    0.40390E+00    0.87706E-09
    0.39805E+02    0.40083E+00    0.22600E-08
    0.42293E+02    0.39872E+00    0.45344E-08
    0.44780E+02    0.39685E+00    0.82855E-08
    0.47268E+02    0.39367E+00    0.23150E-07
    0.49756E+02    0.38863E+00    0.11359E-06
    0.52244E+02    0.38366E+00    0.42366E-06
    0.54732E+02    0.37772E+00    0.12404E-05
    0.57220E+02    0.37274E+00    0.33875E-05
    0.59707E+02    0.36897E+00    0.58740E-05
    0.62195E+02    0.36297E+00    0.94633E-05
    0.64683E+02    0.35448E+00    0.24125E-04
    0.67171E+02    0.34525E+00    0.66537E-04
    0.69659E+02    0.34220E+00    0.13731E-03
    0.72146E+02    0.33962E+00    0.35005E-03
    0.74634E+02    0.33698E+00    0.11692E-02
    0.77122E+02    0.33457E+00    0.40205E-02
    0.79610E+02    0.33330E+00   -0.73069E-02
    0.82098E+02    0.34042E+00    0.15588E+00
    0.84585E+02    0.34511E+00    0.30521E+00
    0.87073E+02    0.35289E+00    0.44379E+00
    0.89561E+02    0.35879E+00    0.50451E+00
    0.92049E+02    0.36810E+00    0.61330E+00
    0.94537E+02    0.37356E+00    0.67338E+00
    0.97024E+02    0.38469E+00    0.73267E+00
    0.99512E+02    0.40059E+00    0.83788E+00
    0.10200E+03    0.40007E+00    0.10000E+01
zone i=     42,T= "1dxhc;t= 0.4500E+03y,z:   1  12"
    0.00000E+00    0.50000E+00    0.00000E+00
    0.24878E+01    0.49764E+00    0.77898E-18
    0.49756E+01    0.49544E+00    0.23449E-17
    0.74634E+01    0.49293E+00    0.70179E-17
    0.99512E+01    0.48974E+00    0.30946E-16
    0.12439E+02    0.48558E+00    0.12922E-15
    0.14927E+02    0.47982E+00    0.78026E-15
    0.17415E+02    0.47264E+00    0.30621E-14
    0.19902E+02    0.46803E+00    0.92562E-14
    0.22390E+02    0.45966E+00    0.26924E-13
    0.24878E+02    0.45129E+00    0.31392E-13
    0.27366E+02    0.44069E+00    0.74255E-13
    0.29854E+02    0.43168E+00    0.18131E-12
    0.32341E+02    0.41981E+00    0.26167E-12
    0.34829E+02    0.40995E+00    0.10038E-11
    0.37317E+02    0.40297E+00    0.42337E-11
    0.39805E+02    0.39849E+00    0.14841E-10
    0.42293E+02    0.39694E+00    0.30547E-10
    0.44780E+02    0.39589E+00    0.11787E-09
    0.47268E+02    0.39490E+00    0.73490E-10
    0.49756E+02    0.39294E+00    0.14870E-09
    0.52244E+02    0.38856E+00    0.31765E-09
    0.54732E+02    0.38069E+00    0.29644E-08
    0.57220E+02    0.37047E+00    0.26943E-08
    0.59707E+02    0.36431E+00    0.14640E-07
    0.62195E+02    0.35526E+00    0.53698E-07
    0.64683E+02    0.34750E+00   -0.16407E-06
    0.67171E+02    0.34210E+00   -0.12895E-05
    0.69659E+02    0.33947E+00   -0.30075E-05
    0.72146E+02    0.33542E+00    0.34307E-06
    0.74634E+02    0.32944E+00    0.14310E-03
    0.77122E+02    0.32377E+00    0.11473E-02
    0.79610E+02    0.31866E+00    0.25361E-02
    0.82098E+02    0.31202E+00    0.59261E-02
    0.84585E+02    0.30396E+00    0.97263E-02
    0.87073E+02    0.29699E+00    0.25467E-01
    0.89561E+02    0.29216E+00    0.47085E-01
    0.92049E+02    0.28240E+00    0.62757E-01
    0.94537E+02    0.26114E+00    0.16422E+00
    0.97024E+02    0.23393E+00    0.26394E+00
    0.99512E+02    0.19427E+00    0.56241E+00
    0.10200E+03    0.16001E+00    0.10000E+01
zone i=     42,T= "1dxhc;t= 0.4500E+03y,z:   1  22"
    0.00000E+00    0.49896E+00   -0.14859E-14
    0.24878E+01    0.49563E+00   -0.22720E-14
    0.49756E+01    0.48857E+00   -0.74347E-14
    0.74634E+01    0.48415E+00   -0.19120E-13
    0.99512E+01    0.47902E+00   -0.21750E-13
    0.12439E+02    0.47443E+00    0.25559E-13
    0.14927E+02    0.46508E+00    0.31198E-12
    0.17415E+02    0.45589E+00    0.20115E-11
    0.19902E+02    0.44867E+00    0.41839E-11
    0.22390E+02    0.43138E+00    0.14578E-10
    0.24878E+02    0.42124E+00    0.56257E-10
    0.27366E+02    0.41122E+00    0.19368E-09
    0.29854E+02    0.39418E+00    0.60376E-09
    0.32341E+02    0.37356E+00    0.16078E-08
    0.34829E+02    0.36364E+00    0.27005E-08
    0.37317E+02    0.34391E+00    0.66633E-08
    0.39805E+02    0.32150E+00    0.13520E-07
    0.42293E+02    0.29036E+00    0.27294E-07
    0.44780E+02    0.27231E+00    0.49867E-07
    0.47268E+02    0.26367E+00    0.89776E-07
    0.49756E+02    0.25610E+00    0.15532E-06
    0.52244E+02    0.24860E+00    0.22890E-06
    0.54732E+02    0.23882E+00    0.37218E-06
    0.57220E+02    0.23420E+00    0.43254E-06
    0.59707E+02    0.22263E+00    0.35228E-06
    0.62195E+02    0.21551E+00    0.50427E-07
    0.64683E+02    0.20992E+00   -0.59761E-06
    0.67171E+02    0.20276E+00   -0.17482E-05
    0.69659E+02    0.19791E+00   -0.31144E-05
    0.72146E+02    0.19149E+00   -0.55153E-05
    0.74634E+02    0.18626E+00   -0.94025E-05
    0.77122E+02    0.17742E+00   -0.18075E-04
    0.79610E+02    0.17094E+00   -0.26148E-04
    0.82098E+02    0.15890E+00   -0.41338E-04
    0.84585E+02    0.14246E+00   -0.92469E-04
    0.87073E+02    0.11106E+00   -0.18287E-03
    0.89561E+02    0.80695E-01   -0.27078E-03
    0.92049E+02    0.60552E-01   -0.36684E-03
    0.94537E+02    0.51808E-01   -0.56293E-03
    0.97024E+02    0.40013E-01    0.64995E-03
    0.99512E+02    0.22635E-01   -0.92658E-03
    0.10200E+03    0.44195E-02   -0.20446E-02
zone i=     42,T= "1dxhc;t= 0.6000E+03y,z:   1   1"
    0.00000E+00    0.50000E+00    0.00000E+00
    0.24878E+01    0.49779E+00    0.28154E-15
    0.49756E+01    0.49612E+00    0.71884E-15
    0.74634E+01    0.49237E+00    0.19092E-14
    0.99512E+01    0.48951E+00    0.62734E-14
    0.12439E+02    0.48594E+00    0.46180E-13
    0.14927E+02    0.48036E+00    0.27727E-12
    0.17415E+02    0.47611E+00    0.12577E-11
    0.19902E+02    0.46636E+00    0.58510E-11
    0.22390E+02    0.45755E+00    0.27305E-10
    0.24878E+02    0.44930E+00    0.64120E-10
    0.27366E+02    0.43575E+00    0.20122E-09
    0.29854E+02    0.42822E+00    0.55551E-09
    0.32341E+02    0.41781E+00    0.15062E-08
    0.34829E+02    0.40947E+00    0.41143E-08
    0.37317E+02    0.40407E+00    0.84066E-08
    0.39805E+02    0.40101E+00    0.19999E-07
    0.42293E+02    0.39890E+00    0.38249E-07
    0.44780E+02    0.39704E+00    0.65255E-07
    0.47268E+02    0.39386E+00    0.15490E-06
    0.49756E+02    0.38883E+00    0.64078E-06
    0.52244E+02    0.38386E+00    0.19725E-05
    0.54732E+02    0.37794E+00    0.49331E-05
    0.57220E+02    0.37297E+00    0.12111E-04
    0.59707E+02    0.36919E+00    0.19424E-04
    0.62195E+02    0.36320E+00    0.31803E-04
    0.64683E+02    0.35472E+00    0.79610E-04
    0.67171E+02    0.34558E+00    0.19747E-03
    0.69659E+02    0.34261E+00    0.40274E-03
    0.72146E+02    0.34017E+00    0.12804E-02
    0.74634E+02    0.33799E+00    0.41924E-02
    0.77122E+02    0.33689E+00    0.10209E-01
    0.79610E+02    0.33901E+00    0.77050E-01
    0.82098E+02    0.34972E+00    0.27036E+00
    0.84585E+02    0.35450E+00    0.42483E+00
    0.87073E+02    0.36163E+00    0.56355E+00
    0.89561E+02    0.36682E+00    0.61077E+00
    0.92049E+02    0.37478E+00    0.69061E+00
    0.94537E+02    0.37942E+00    0.73147E+00
    0.97024E+02    0.38872E+00    0.76713E+00
    0.99512E+02    0.40234E+00    0.86188E+00
    0.10200E+03    0.40007E+00    0.10000E+01
zone i=     42,T= "1dxhc;t= 0.6000E+03y,z:   1  12"
    0.00000E+00    0.50000E+00    0.00000E+00
    0.24878E+01    0.49765E+00    0.22498E-16
    0.49756E+01    0.49545E+00    0.64207E-16
    0.74634E+01    0.49294E+00    0.18628E-15
    0.99512E+01    0.48975E+00    0.74289E-15
    0.12439E+02    0.48560E+00    0.27631E-14
    0.14927E+02    0.47985E+00    0.14739E-13
    0.17415E+02    0.47268E+00    0.51009E-13
    0.19902E+02    0.46808E+00    0.14039E-12
    0.22390E+02    0.45972E+00    0.37042E-12
    0.24878E+02    0.45137E+00    0.42670E-12
    0.27366E+02    0.44079E+00    0.10800E-11
    0.29854E+02    0.43180E+00    0.26843E-11
    0.32341E+02    0.41995E+00    0.43194E-11
    0.34829E+02    0.41011E+00    0.12750E-10
    0.37317E+02    0.40314E+00    0.42082E-10
    0.39805E+02    0.39867E+00    0.12255E-09
    0.42293E+02    0.39713E+00    0.23197E-09
    0.44780E+02    0.39607E+00    0.83854E-09
    0.47268E+02    0.39509E+00    0.58734E-09
    0.49756E+02    0.39313E+00    0.12168E-08
    0.52244E+02    0.38876E+00    0.26084E-08
    0.54732E+02    0.38089E+00    0.17543E-07
    0.57220E+02    0.37065E+00    0.17098E-07
    0.59707E+02    0.36447E+00    0.63951E-07
    0.62195E+02    0.35538E+00    0.19594E-06
    0.64683E+02    0.34754E+00   -0.47407E-06
    0.67171E+02    0.34203E+00   -0.38436E-05
    0.69659E+02    0.33930E+00   -0.39529E-05
    0.72146E+02    0.33502E+00    0.23599E-04
    0.74634E+02    0.32856E+00    0.33986E-03
    0.77122E+02    0.32234E+00    0.18770E-02
    0.79610E+02    0.31672E+00    0.38159E-02
    0.82098E+02    0.30952E+00    0.81458E-02
    0.84585E+02    0.30099E+00    0.12785E-01
    0.87073E+02    0.29387E+00    0.29945E-01
    0.89561E+02    0.28906E+00    0.52309E-01
    0.92049E+02    0.27944E+00    0.69250E-01
    0.94537E+02    0.25862E+00    0.16995E+00
    0.97024E+02    0.23204E+00    0.26808E+00
    0.99512E+02    0.19337E+00    0.56323E+00
    0.10200E+03    0.16001E+00    0.10000E+01
zone i=     42,T= "1dxhc;t= 0.6000E+03y,z:   1  22"
    0.00000E+00    0.49896E+00    0.27998E-14
    0.24878E+01    0.49563E+00    0.12309E-13
    0.49756E+01    0.48857E+00    0.54598E-13
    0.74634E+01    0.48415E+00    0.26413E-12
    0.99512E+01    0.47902E+00    0.90847E-12
    0.12439E+02    0.47443E+00    0.26909E-11
    0.14927E+02    0.46508E+00    0.76801E-11
    0.17415E+02    0.45589E+00    0.24998E-10
    0.19902E+02    0.44867E+00    0.42712E-10
    0.22390E+02    0.43137E+00    0.12037E-09
    0.24878E+02    0.42123E+00    0.35091E-09
    0.27366E+02    0.41121E+00    0.89270E-09
    0.29854E+02    0.39417E+00    0.21753E-08
    0.32341E+02    0.37355E+00    0.49109E-08
    0.34829E+02    0.36363E+00    0.76488E-08
    0.37317E+02    0.34389E+00    0.17160E-07
    0.39805E+02    0.32149E+00    0.31981E-07
    0.42293E+02    0.29033E+00    0.59423E-07
    0.44780E+02    0.27228E+00    0.10163E-06
    0.47268E+02    0.26364E+00    0.17215E-06
    0.49756E+02    0.25607E+00    0.28453E-06
    0.52244E+02    0.24857E+00    0.40983E-06
    0.54732E+02    0.23879E+00    0.65111E-06
    0.57220E+02    0.23417E+00    0.76891E-06
    0.59707E+02    0.22259E+00    0.70810E-06
    0.62195E+02    0.21547E+00    0.42558E-06
    0.64683E+02    0.20988E+00   -0.36482E-06
    0.67171E+02    0.20271E+00   -0.15697E-05
    0.69659E+02    0.19786E+00   -0.28924E-05
    0.72146E+02    0.19144E+00   -0.54492E-05
    0.74634E+02    0.18620E+00   -0.98931E-05
    0.77122E+02    0.17736E+00   -0.20008E-04
    0.79610E+02    0.17089E+00   -0.29074E-04
    0.82098E+02    0.15885E+00   -0.45506E-04
    0.84585E+02    0.14241E+00   -0.10480E-03
    0.87073E+02    0.11101E+00   -0.19408E-03
    0.89561E+02    0.80654E-01   -0.27701E-03
    0.92049E+02    0.60517E-01   -0.37216E-03
    0.94537E+02    0.51777E-01   -0.58646E-03
    0.97024E+02    0.39991E-01    0.62405E-03
    0.99512E+02    0.22625E-01   -0.93133E-03
    0.10200E+03    0.44178E-02   -0.20410E-02
zone i=     42,T= "1dxhc;t= 0.7500E+03y,z:   1   1"
    0.00000E+00    0.50000E+00    0.00000E+00
    0.24878E+01    0.49779E+00    0.46863E-14
    0.49756E+01    0.49613E+00    0.11971E-13
    0.74634E+01    0.49238E+00    0.30193E-13
    0.99512E+01    0.48953E+00    0.95632E-13
    0.12439E+02    0.48596E+00    0.60694E-12
    0.14927E+02    0.48039E+00    0.31326E-11
    0.17415E+02    0.47614E+00    0.12354E-10
    0.19902E+02    0.46641E+00    0.50857E-10
    0.22390E+02    0.45762E+00    0.20829E-09
    0.24878E+02    0.44937E+00    0.44888E-09
    0.27366E+02    0.43585E+00    0.12807E-08
    0.29854E+02    0.42833E+00    0.32140E-08
    0.32341E+02    0.41794E+00    0.80147E-08
    0.34829E+02    0.40961E+00    0.20038E-07
    0.37317E+02    0.40423E+00    0.37980E-07
    0.39805E+02    0.40117E+00    0.84386E-07
    0.42293E+02    0.39906E+00    0.15460E-06
    0.44780E+02    0.39720E+00    0.25079E-06
    0.47268E+02    0.39403E+00    0.51444E-06
    0.49756E+02    0.38901E+00    0.18005E-05
    0.52244E+02    0.38405E+00    0.45969E-05
    0.54732E+02    0.37813E+00    0.98392E-05
    0.57220E+02    0.37317E+00    0.21502E-04
    0.59707E+02    0.36940E+00    0.32226E-04
    0.62195E+02    0.36342E+00    0.55645E-04
    0.64683E+02    0.35496E+00    0.15771E-03
    0.67171E+02    0.34593E+00    0.43178E-03
    0.69659E+02    0.34306E+00    0.10169E-02
    0.72146E+02    0.34080E+00    0.34819E-02
    0.74634E+02    0.33961E+00    0.39234E-02
    0.77122E+02    0.34056E+00    0.14517E-01
    0.79610E+02    0.34541E+00    0.16576E+00
    0.82098E+02    0.35681E+00    0.35999E+00
    0.84585E+02    0.36127E+00    0.50390E+00
    0.87073E+02    0.36777E+00    0.63884E+00
    0.89561E+02    0.37238E+00    0.67824E+00
    0.92049E+02    0.37937E+00    0.74122E+00
    0.94537E+02    0.38345E+00    0.77176E+00
    0.97024E+02    0.39151E+00    0.79474E+00
    0.99512E+02    0.40358E+00    0.88525E+00
    0.10200E+03    0.40007E+00    0.10000E+01
zone i=     42,T= "1dxhc;t= 0.7500E+03y,z:   1  12"
    0.00000E+00    0.50000E+00    0.00000E+00
    0.24878E+01    0.49765E+00    0.29176E-15
    0.49756E+01    0.49546E+00    0.79954E-15
    0.74634E+01    0.49295E+00    0.22471E-14
    0.99512E+01    0.48977E+00    0.82471E-14
    0.12439E+02    0.48562E+00    0.27884E-13
    0.14927E+02    0.47988E+00    0.13363E-12
    0.17415E+02    0.47272E+00    0.41594E-12
    0.19902E+02    0.46813E+00    0.10588E-11
    0.22390E+02    0.45978E+00    0.25692E-11
    0.24878E+02    0.45145E+00    0.28798E-11
    0.27366E+02    0.44088E+00    0.71200E-11
    0.29854E+02    0.43190E+00    0.16788E-10
    0.32341E+02    0.42007E+00    0.26717E-10
    0.34829E+02    0.41025E+00    0.72177E-10
    0.37317E+02    0.40330E+00    0.21073E-09
    0.39805E+02    0.39883E+00    0.55000E-09
    0.42293E+02    0.39729E+00    0.98344E-09
    0.44780E+02    0.39624E+00    0.33634E-08
    0.47268E+02    0.39525E+00    0.24546E-08
    0.49756E+02    0.39330E+00    0.49406E-08
    0.52244E+02    0.38893E+00    0.93780E-08
    0.54732E+02    0.38106E+00    0.52997E-07
    0.57220E+02    0.37082E+00    0.49872E-07
    0.59707E+02    0.36462E+00    0.18030E-06
    0.62195E+02    0.35547E+00    0.52034E-06
    0.64683E+02    0.34756E+00   -0.76624E-06
    0.67171E+02    0.34196E+00   -0.72494E-05
    0.69659E+02    0.33912E+00    0.45649E-06
    0.72146E+02    0.33464E+00    0.69927E-04
    0.74634E+02    0.32778E+00    0.56309E-03
    0.77122E+02    0.32113E+00    0.24734E-02
    0.79610E+02    0.31516E+00    0.47534E-02
    0.82098E+02    0.30763E+00    0.96083E-02
    0.84585E+02    0.29888E+00    0.14765E-01
    0.87073E+02    0.29171E+00    0.32644E-01
    0.89561E+02    0.28692E+00    0.55284E-01
    0.92049E+02    0.27740E+00    0.72884E-01
    0.94537E+02    0.25690E+00    0.17281E+00
    0.97024E+02    0.23075E+00    0.26982E+00
    0.99512E+02    0.19275E+00    0.56310E+00
    0.10200E+03    0.16001E+00    0.10000E+01
zone i=     42,T= "1dxhc;t= 0.7500E+03y,z:   1  22"
    0.00000E+00    0.49896E+00    0.85359E-13
    0.24878E+01    0.49563E+00    0.16015E-12
    0.49756E+01    0.48857E+00    0.59144E-12
    0.74634E+01    0.48415E+00    0.21027E-11
    0.99512E+01    0.47902E+00    0.56186E-11
    0.12439E+02    0.47443E+00    0.14050E-10
    0.14927E+02    0.46508E+00    0.34633E-10
    0.17415E+02    0.45588E+00    0.94297E-10
    0.19902E+02    0.44867E+00    0.15134E-09
    0.22390E+02    0.43137E+00    0.39189E-09
    0.24878E+02    0.42123E+00    0.10110E-08
    0.27366E+02    0.41121E+00    0.22065E-08
    0.29854E+02    0.39417E+00    0.46734E-08
    0.32341E+02    0.37354E+00    0.95672E-08
    0.34829E+02    0.36362E+00    0.14268E-07
    0.37317E+02    0.34388E+00    0.30200E-07
    0.39805E+02    0.32147E+00    0.53590E-07
    0.42293E+02    0.29032E+00    0.94875E-07
    0.44780E+02    0.27226E+00    0.15609E-06
    0.47268E+02    0.26362E+00    0.25497E-06
    0.49756E+02    0.25604E+00    0.40979E-06
    0.52244E+02    0.24854E+00    0.58225E-06
    0.54732E+02    0.23876E+00    0.91176E-06
    0.57220E+02    0.23414E+00    0.10876E-05
    0.59707E+02    0.22256E+00    0.10713E-05
    0.62195E+02    0.21543E+00    0.89106E-06
    0.64683E+02    0.20984E+00    0.79565E-07
    0.67171E+02    0.20267E+00   -0.97199E-06
    0.69659E+02    0.19782E+00   -0.20971E-05
    0.72146E+02    0.19140E+00   -0.45478E-05
    0.74634E+02    0.18616E+00   -0.91057E-05
    0.77122E+02    0.17732E+00   -0.19681E-04
    0.79610E+02    0.17085E+00   -0.29039E-04
    0.82098E+02    0.15881E+00   -0.45214E-04
    0.84585E+02    0.14237E+00   -0.10704E-03
    0.87073E+02    0.11098E+00   -0.19430E-03
    0.89561E+02    0.80624E-01   -0.27407E-03
    0.92049E+02    0.60491E-01   -0.37085E-03
    0.94537E+02    0.51754E-01   -0.59472E-03
    0.97024E+02    0.39973E-01    0.62134E-03
    0.99512E+02    0.22616E-01   -0.93217E-03
    0.10200E+03    0.44160E-02   -0.20451E-02
zone i=     42,T= "1dxhc;t= 0.9000E+03y,z:   1   1"
    0.00000E+00    0.50000E+00    0.00000E+00
    0.24878E+01    0.49779E+00    0.42343E-13
    0.49756E+01    0.49613E+00    0.10712E-12