title="2d K section "
variables="x","z","Kx","logKx","Kz","logKz","porosity"
zone i=    22, j=    42,T="Initial K at t=0"
   0.0000000E+00   0.0000000E+00   0.5237925E-04  -0.4280841E+01   0.5237925E-04  -0.4280841E+01   0.3000000E+00
   0.0000000E+00   0.9761905E+00   0.8679166E-04  -0.4061522E+01   0.8679166E-04  -0.4061522E+01   0.3000000E+00
   0.0000000E+00   0.1952381E+01   0.4858965E-04  -0.4313456E+01   0.4858965E-04  -0.4313456E+01   0.3000000E+00
   0.0000000E+00   0.2928571E+01   0.4809656E-04  -0.4317886E+01   0.4809656E-04  -0.4317886E+01   0.3000000E+00
   0.0000000E+00   0.3904762E+01   0.9443489E-04  -0.4024868E+01   0.9443489E-04  -0.4024868E+01   0.3000000E+00
   0.0000000E+00   0.4880952E+01   0.4400532E-04  -0.4356495E+01   0.4400532E-04  -0.4356495E+01   0.3000000E+00
   0.0000000E+00   0.5857143E+01   0.4069929E-04  -0.4390413E+01   0.4069929E-04  -0.4390413E+01   0.3000000E+00
   0.0000000E+00   0.6833333E+01   0.8860697E-04  -0.4052532E+01   0.8860697E-04  -0.4052532E+01   0.3000000E+00
   0.0000000E+00   0.7809524E+01   0.2354528E-03  -0.3628096E+01   0.2354528E-03  -0.3628096E+01   0.3000000E+00
   0.0000000E+00   0.8785714E+01   0.1033076E-03  -0.3985868E+01   0.1033076E-03  -0.3985868E+01   0.3000000E+00
   0.0000000E+00   0.9761905E+01   0.1182748E-03  -0.3927108E+01   0.1182748E-03  -0.3927108E+01   0.3000000E+00
   0.0000000E+00   0.1073810E+02   0.1378479E-07  -0.7860600E+01   0.1378479E-07  -0.7860600E+01   0.3000000E+00
   0.0000000E+00   0.1171429E+02   0.1026526E-07  -0.7988630E+01   0.1026526E-07  -0.7988630E+01   0.3000000E+00
   0.0000000E+00   0.1269048E+02   0.1728892E-07  -0.7762232E+01   0.1728892E-07  -0.7762232E+01   0.3000000E+00
   0.0000000E+00   0.1366667E+02   0.1783505E-07  -0.7748726E+01   0.1783505E-07  -0.7748726E+01   0.3000000E+00
   0.0000000E+00   0.1464286E+02   0.2849321E-07  -0.7545259E+01   0.2849321E-07  -0.7545259E+01   0.3000000E+00
   0.0000000E+00   0.1561905E+02   0.1708030E-03  -0.3767505E+01   0.1708030E-03  -0.3767505E+01   0.3000000E+00
   0.0000000E+00   0.1659524E+02   0.6897269E-04  -0.4161323E+01   0.6897269E-04  -0.4161323E+01   0.3000000E+00
   0.0000000E+00   0.1757143E+02   0.3882291E-04  -0.4410912E+01   0.3882291E-04  -0.4410912E+01   0.3000000E+00
   0.0000000E+00   0.1854762E+02   0.3352899E-04  -0.4474579E+01   0.3352899E-04  -0.4474579E+01   0.3000000E+00
   0.0000000E+00   0.1952381E+02   0.3596012E-04  -0.4444179E+01   0.3596012E-04  -0.4444179E+01   0.3000000E+00
   0.0000000E+00   0.2050000E+02   0.3596012E-04  -0.4444179E+01   0.3596012E-04  -0.4444179E+01   0.3000000E+00
   0.2487805E+01   0.0000000E+00   0.8016689E-04  -0.4096005E+01   0.8016689E-04  -0.4096005E+01   0.3000000E+00
   0.2487805E+01   0.9761905E+00   0.4489878E-04  -0.4347765E+01   0.4489878E-04  -0.4347765E+01   0.3000000E+00
   0.2487805E+01   0.1952381E+01   0.6062519E-04  -0.4217347E+01   0.6062519E-04  -0.4217347E+01   0.3000000E+00
   0.2487805E+01   0.2928571E+01   0.4198072E-04  -0.4376950E+01   0.4198072E-04  -0.4376950E+01   0.3000000E+00
   0.2487805E+01   0.3904762E+01   0.6288518E-04  -0.4201452E+01   0.6288518E-04  -0.4201452E+01   0.3000000E+00
   0.2487805E+01   0.4880952E+01   0.3567715E-04  -0.4447610E+01   0.3567715E-04  -0.4447610E+01   0.3000000E+00
   0.2487805E+01   0.5857143E+01   0.4900442E-04  -0.4309765E+01   0.4900442E-04  -0.4309765E+01   0.3000000E+00
   0.2487805E+01   0.6833333E+01   0.6008202E-04  -0.4221256E+01   0.6008202E-04  -0.4221256E+01   0.3000000E+00
   0.2487805E+01   0.7809524E+01   0.1068163E-03  -0.3971362E+01   0.1068163E-03  -0.3971362E+01   0.3000000E+00
   0.2487805E+01   0.8785714E+01   0.1269014E-03  -0.3896534E+01   0.1269014E-03  -0.3896534E+01   0.3000000E+00
   0.2487805E+01   0.9761905E+01   0.1028129E-03  -0.3987953E+01   0.1028129E-03  -0.3987953E+01   0.3000000E+00
   0.2487805E+01   0.1073810E+02   0.3871205E-08  -0.8412154E+01   0.3871205E-08  -0.8412154E+01   0.3000000E+00
   0.2487805E+01   0.1171429E+02   0.3000761E-08  -0.8522769E+01   0.3000761E-08  -0.8522769E+01   0.3000000E+00
   0.2487805E+01   0.1269048E+02   0.1498075E-07  -0.7824467E+01   0.1498075E-07  -0.7824467E+01   0.3000000E+00
   0.2487805E+01   0.1366667E+02   0.1023554E-07  -0.7989889E+01   0.1023554E-07  -0.7989889E+01   0.3000000E+00
   0.2487805E+01   0.1464286E+02   0.1297891E-03  -0.3886762E+01   0.1297891E-03  -0.3886762E+01   0.3000000E+00
   0.2487805E+01   0.1561905E+02   0.8372273E-04  -0.4077157E+01   0.8372273E-04  -0.4077157E+01   0.3000000E+00
   0.2487805E+01   0.1659524E+02   0.5431012E-04  -0.4265119E+01   0.5431012E-04  -0.4265119E+01   0.3000000E+00
   0.2487805E+01   0.1757143E+02   0.4623377E-04  -0.4335041E+01   0.4623377E-04  -0.4335041E+01   0.3000000E+00
   0.2487805E+01   0.1854762E+02   0.2714819E-04  -0.4566259E+01   0.2714819E-04  -0.4566259E+01   0.3000000E+00
   0.2487805E+01   0.1952381E+02   0.2123202E-04  -0.4673009E+01   0.2123202E-04  -0.4673009E+01   0.3000000E+00
   0.2487805E+01   0.2050000E+02   0.2123202E-04  -0.4673009E+01   0.2123202E-04  -0.4673009E+01   0.3000000E+00
   0.4975610E+01   0.0000000E+00   0.2781876E-04  -0.4555662E+01   0.2781876E-04  -0.4555662E+01   0.3000000E+00
   0.4975610E+01   0.9761905E+00   0.1930590E-04  -0.4714310E+01   0.1930590E-04  -0.4714310E+01   0.3000000E+00
   0.4975610E+01   0.1952381E+01   0.2677077E-04  -0.4572339E+01   0.2677077E-04  -0.4572339E+01   0.3000000E+00
   0.4975610E+01   0.2928571E+01   0.3534336E-04  -0.4451692E+01   0.3534336E-04  -0.4451692E+01   0.3000000E+00
   0.4975610E+01   0.3904762E+01   0.5131128E-04  -0.4289787E+01   0.5131128E-04  -0.4289787E+01   0.3000000E+00
   0.4975610E+01   0.4880952E+01   0.8566211E-04  -0.4067211E+01   0.8566211E-04  -0.4067211E+01   0.3000000E+00
   0.4975610E+01   0.5857143E+01   0.4908780E-04  -0.4309026E+01   0.4908780E-04  -0.4309026E+01   0.3000000E+00
   0.4975610E+01   0.6833333E+01   0.4722439E-04  -0.4325834E+01   0.4722439E-04  -0.4325834E+01   0.3000000E+00
   0.4975610E+01   0.7809524E+01   0.9841671E-04  -0.4006931E+01   0.9841671E-04  -0.4006931E+01   0.3000000E+00
   0.4975610E+01   0.8785714E+01   0.8990113E-04  -0.4046235E+01   0.8990113E-04  -0.4046235E+01   0.3000000E+00
   0.4975610E+01   0.9761905E+01   0.5626713E-04  -0.4249745E+01   0.5626713E-04  -0.4249745E+01   0.3000000E+00
   0.4975610E+01   0.1073810E+02   0.4750576E-08  -0.8323254E+01   0.4750576E-08  -0.8323254E+01   0.3000000E+00
   0.4975610E+01   0.1171429E+02   0.5827370E-08  -0.8234527E+01   0.5827370E-08  -0.8234527E+01   0.3000000E+00
   0.4975610E+01   0.1269048E+02   0.1922797E-07  -0.7716067E+01   0.1922797E-07  -0.7716067E+01   0.3000000E+00
   0.4975610E+01   0.1366667E+02   0.1154054E-07  -0.7937774E+01   0.1154054E-07  -0.7937774E+01   0.3000000E+00
   0.4975610E+01   0.1464286E+02   0.7508423E-04  -0.4124451E+01   0.7508423E-04  -0.4124451E+01   0.3000000E+00
   0.4975610E+01   0.1561905E+02   0.6649392E-04  -0.4177218E+01   0.6649392E-04  -0.4177218E+01   0.3000000E+00
   0.4975610E+01   0.1659524E+02   0.5771462E-04  -0.4238714E+01   0.5771462E-04  -0.4238714E+01   0.3000000E+00
   0.4975610E+01   0.1757143E+02   0.3594574E-04  -0.4444353E+01   0.3594574E-04  -0.4444353E+01   0.3000000E+00
   0.4975610E+01   0.1854762E+02   0.7190966E-04  -0.4143213E+01   0.7190966E-04  -0.4143213E+01   0.3000000E+00
   0.4975610E+01   0.1952381E+02   0.2965440E-04  -0.4527911E+01   0.2965440E-04  -0.4527911E+01   0.3000000E+00
   0.4975610E+01   0.2050000E+02   0.2965440E-04  -0.4527911E+01   0.2965440E-04  -0.4527911E+01   0.3000000E+00
   0.7463415E+01   0.0000000E+00   0.2171516E-04  -0.4663237E+01   0.2171516E-04  -0.4663237E+01   0.3000000E+00
   0.7463415E+01   0.9761905E+00   0.3731557E-04  -0.4428110E+01   0.3731557E-04  -0.4428110E+01   0.3000000E+00
   0.7463415E+01   0.1952381E+01   0.3120601E-04  -0.4505762E+01   0.3120601E-04  -0.4505762E+01   0.3000000E+00
   0.7463415E+01   0.2928571E+01   0.1486227E-03  -0.3827915E+01   0.1486227E-03  -0.3827915E+01   0.3000000E+00
   0.7463415E+01   0.3904762E+01   0.9172643E-04  -0.4037506E+01   0.9172643E-04  -0.4037506E+01   0.3000000E+00
   0.7463415E+01   0.4880952E+01   0.3779628E-04  -0.4422551E+01   0.3779628E-04  -0.4422551E+01   0.3000000E+00
   0.7463415E+01   0.5857143E+01   0.5095845E-04  -0.4292784E+01   0.5095845E-04  -0.4292784E+01   0.3000000E+00
   0.7463415E+01   0.6833333E+01   0.6386111E-04  -0.4194764E+01   0.6386111E-04  -0.4194764E+01   0.3000000E+00
   0.7463415E+01   0.7809524E+01   0.5806195E-04  -0.4236108E+01   0.5806195E-04  -0.4236108E+01   0.3000000E+00
   0.7463415E+01   0.8785714E+01   0.4357182E-04  -0.4360794E+01   0.4357182E-04  -0.4360794E+01   0.3000000E+00
   0.7463415E+01   0.9761905E+01   0.3858295E-04  -0.4413605E+01   0.3858295E-04  -0.4413605E+01   0.3000000E+00
   0.7463415E+01   0.1073810E+02   0.8049950E-08  -0.8094207E+01   0.8049950E-08  -0.8094207E+01   0.3000000E+00
   0.7463415E+01   0.1171429E+02   0.1109912E-07  -0.7954711E+01   0.1109912E-07  -0.7954711E+01   0.3000000E+00
   0.7463415E+01   0.1269048E+02   0.3552959E-07  -0.7449410E+01   0.3552959E-07  -0.7449410E+01   0.3000000E+00
   0.7463415E+01   0.1366667E+02   0.4432575E-07  -0.7353344E+01   0.4432575E-07  -0.7353344E+01   0.3000000E+00
   0.7463415E+01   0.1464286E+02   0.4651666E-04  -0.4332391E+01   0.4651666E-04  -0.4332391E+01   0.3000000E+00
   0.7463415E+01   0.1561905E+02   0.4742315E-04  -0.4324010E+01   0.4742315E-04  -0.4324010E+01   0.3000000E+00
   0.7463415E+01   0.1659524E+02   0.4511030E-04  -0.4345724E+01   0.4511030E-04  -0.4345724E+01   0.3000000E+00
   0.7463415E+01   0.1757143E+02   0.5208675E-04  -0.4283273E+01   0.5208675E-04  -0.4283273E+01   0.3000000E+00
   0.7463415E+01   0.1854762E+02   0.3243735E-04  -0.4488955E+01   0.3243735E-04  -0.4488955E+01   0.3000000E+00
   0.7463415E+01   0.1952381E+02   0.3234342E-04  -0.4490214E+01   0.3234342E-04  -0.4490214E+01   0.3000000E+00
   0.7463415E+01   0.2050000E+02   0.3234342E-04  -0.4490214E+01   0.3234342E-04  -0.4490214E+01   0.3000000E+00
   0.9951220E+01   0.0000000E+00   0.1884053E-04  -0.4724907E+01   0.1884053E-04  -0.4724907E+01   0.3000000E+00
   0.9951220E+01   0.9761905E+00   0.2566711E-04  -0.4590623E+01   0.2566711E-04  -0.4590623E+01   0.3000000E+00
   0.9951220E+01   0.1952381E+01   0.4173377E-04  -0.4379512E+01   0.4173377E-04  -0.4379512E+01   0.3000000E+00
   0.9951220E+01   0.2928571E+01   0.3364992E-04  -0.4473016E+01   0.3364992E-04  -0.4473016E+01   0.3000000E+00
   0.9951220E+01   0.3904762E+01   0.8103738E-04  -0.4091315E+01   0.8103738E-04  -0.4091315E+01   0.3000000E+00
   0.9951220E+01   0.4880952E+01   0.4647946E-04  -0.4332739E+01   0.4647946E-04  -0.4332739E+01   0.3000000E+00
   0.9951220E+01   0.5857143E+01   0.5387737E-04  -0.4268594E+01   0.5387737E-04  -0.4268594E+01   0.3000000E+00
   0.9951220E+01   0.6833333E+01   0.5414743E-04  -0.4266422E+01   0.5414743E-04  -0.4266422E+01   0.3000000E+00
   0.9951220E+01   0.7809524E+01   0.2752544E-04  -0.4560266E+01   0.2752544E-04  -0.4560266E+01   0.3000000E+00
   0.9951220E+01   0.8785714E+01   0.3127473E-04  -0.4504806E+01   0.3127473E-04  -0.4504806E+01   0.3000000E+00
   0.9951220E+01   0.9761905E+01   0.3099143E-04  -0.4508758E+01   0.3099143E-04  -0.4508758E+01   0.3000000E+00
   0.9951220E+01   0.1073810E+02   0.1044022E-07  -0.7981290E+01   0.1044022E-07  -0.7981290E+01   0.3000000E+00
   0.9951220E+01   0.1171429E+02   0.9988814E-08  -0.8000486E+01   0.9988814E-08  -0.8000486E+01   0.3000000E+00
   0.9951220E+01   0.1269048E+02   0.2307076E-07  -0.7636938E+01   0.2307076E-07  -0.7636938E+01   0.3000000E+00
   0.9951220E+01   0.1366667E+02   0.3535238E-07  -0.7451581E+01   0.3535238E-07  -0.7451581E+01   0.3000000E+00
   0.9951220E+01   0.1464286E+02   0.5777814E-04  -0.4238236E+01   0.5777814E-04  -0.4238236E+01   0.3000000E+00
   0.9951220E+01   0.1561905E+02   0.5845812E-04  -0.4233155E+01   0.5845812E-04  -0.4233155E+01   0.3000000E+00
   0.9951220E+01   0.1659524E+02   0.4334583E-04  -0.4363053E+01   0.4334583E-04  -0.4363053E+01   0.3000000E+00
   0.9951220E+01   0.1757143E+02   0.3927195E-04  -0.4405918E+01   0.3927195E-04  -0.4405918E+01   0.3000000E+00
   0.9951220E+01   0.1854762E+02   0.2629321E-04  -0.4580156E+01   0.2629321E-04  -0.4580156E+01   0.3000000E+00
   0.9951220E+01   0.1952381E+02   0.3563437E-04  -0.4448131E+01   0.3563437E-04  -0.4448131E+01   0.3000000E+00
   0.9951220E+01   0.2050000E+02   0.3563437E-04  -0.4448131E+01   0.3563437E-04  -0.4448131E+01   0.3000000E+00
   0.1243902E+02   0.0000000E+00   0.1453574E-04  -0.4837563E+01   0.1453574E-04  -0.4837563E+01   0.3000000E+00
   0.1243902E+02   0.9761905E+00   0.1558191E-04  -0.4807379E+01   0.1558191E-04  -0.4807379E+01   0.3000000E+00
   0.1243902E+02   0.1952381E+01   0.3653280E-04  -0.4437317E+01   0.3653280E-04  -0.4437317E+01   0.3000000E+00
   0.1243902E+02   0.2928571E+01   0.2377681E-04  -0.4623846E+01   0.2377681E-04  -0.4623846E+01   0.3000000E+00
   0.1243902E+02   0.3904762E+01   0.1090723E-03  -0.3962286E+01   0.1090723E-03  -0.3962286E+01   0.3000000E+00
   0.1243902E+02   0.4880952E+01   0.3967061E-04  -0.4401531E+01   0.3967061E-04  -0.4401531E+01   0.3000000E+00
   0.1243902E+02   0.5857143E+01   0.2727882E-04  -0.4564174E+01   0.2727882E-04  -0.4564174E+01   0.3000000E+00
   0.1243902E+02   0.6833333E+01   0.3353235E-04  -0.4474536E+01   0.3353235E-04  -0.4474536E+01   0.3000000E+00
   0.1243902E+02   0.7809524E+01   0.2332931E-04  -0.4632098E+01   0.2332931E-04  -0.4632098E+01   0.3000000E+00
   0.1243902E+02   0.8785714E+01   0.3273715E-04  -0.4484959E+01   0.3273715E-04  -0.4484959E+01   0.3000000E+00
   0.1243902E+02   0.9761905E+01   0.2881254E-04  -0.4540419E+01   0.2881254E-04  -0.4540419E+01   0.3000000E+00
   0.1243902E+02   0.1073810E+02   0.2226388E-07  -0.7652399E+01   0.2226388E-07  -0.7652399E+01   0.3000000E+00
   0.1243902E+02   0.1171429E+02   0.9320030E-08  -0.8030583E+01   0.9320030E-08  -0.8030583E+01   0.3000000E+00
   0.1243902E+02   0.1269048E+02   0.7973837E-08  -0.8098333E+01   0.7973837E-08  -0.8098333E+01   0.3000000E+00
   0.1243902E+02   0.1366667E+02   0.2472626E-07  -0.7606842E+01   0.2472626E-07  -0.7606842E+01   0.3000000E+00
   0.1243902E+02   0.1464286E+02   0.2418689E-04  -0.4616420E+01   0.2418689E-04  -0.4616420E+01   0.3000000E+00
   0.1243902E+02   0.1561905E+02   0.2734710E-04  -0.4563089E+01   0.2734710E-04  -0.4563089E+01   0.3000000E+00
   0.1243902E+02   0.1659524E+02   0.2488115E-04  -0.4604130E+01   0.2488115E-04  -0.4604130E+01   0.3000000E+00
   0.1243902E+02   0.1757143E+02   0.2093685E-04  -0.4679089E+01   0.2093685E-04  -0.4679089E+01   0.3000000E+00
   0.1243902E+02   0.1854762E+02   0.1693209E-04  -0.4771289E+01   0.1693209E-04  -0.4771289E+01   0.3000000E+00
   0.1243902E+02   0.1952381E+02   0.1636444E-04  -0.4786099E+01   0.1636444E-04  -0.4786099E+01   0.3000000E+00
   0.1243902E+02   0.2050000E+02   0.1636444E-04  -0.4786099E+01   0.1636444E-04  -0.4786099E+01   0.3000000E+00
   0.1492683E+02   0.0000000E+00   0.2343922E-04  -0.4630057E+01   0.2343922E-04  -0.4630057E+01   0.3000000E+00
   0.1492683E+02   0.9761905E+00   0.2515132E-04  -0.4599439E+01   0.2515132E-04  -0.4599439E+01   0.3000000E+00
   0.1492683E+02   0.1952381E+01   0.3916606E-04  -0.4407090E+01   0.3916606E-04  -0.4407090E+01   0.3000000E+00
   0.1492683E+02   0.2928571E+01   0.2624067E-04  -0.4581025E+01   0.2624067E-04  -0.4581025E+01   0.3000000E+00
   0.1492683E+02   0.3904762E+01   0.5312834E-04  -0.4274674E+01   0.5312834E-04  -0.4274674E+01   0.3000000E+00
   0.1492683E+02   0.4880952E+01   0.2108813E-04  -0.4675962E+01   0.2108813E-04  -0.4675962E+01   0.3000000E+00
   0.1492683E+02   0.5857143E+01   0.2596139E-04  -0.4585672E+01   0.2596139E-04  -0.4585672E+01   0.3000000E+00
   0.1492683E+02   0.6833333E+01   0.1592055E-04  -0.4798042E+01   0.1592055E-04  -0.4798042E+01   0.3000000E+00
   0.1492683E+02   0.7809524E+01   0.1943179E-04  -0.4711487E+01   0.1943179E-04  -0.4711487E+01   0.3000000E+00
   0.1492683E+02   0.8785714E+01   0.2180873E-04  -0.4661370E+01   0.2180873E-04  -0.4661370E+01   0.3000000E+00
   0.1492683E+02   0.9761905E+01   0.3449832E-04  -0.4462202E+01   0.3449832E-04  -0.4462202E+01   0.3000000E+00
   0.1492683E+02   0.1073810E+02   0.1789222E-07  -0.7747336E+01   0.1789222E-07  -0.7747336E+01   0.3000000E+00
   0.1492683E+02   0.1171429E+02   0.2283206E-07  -0.7641455E+01   0.2283206E-07  -0.7641455E+01   0.3000000E+00
   0.1492683E+02   0.1269048E+02   0.1289276E-07  -0.7889654E+01   0.1289276E-07  -0.7889654E+01   0.3000000E+00
   0.1492683E+02   0.1366667E+02   0.3124208E-07  -0.7505260E+01   0.3124208E-07  -0.7505260E+01   0.3000000E+00
   0.1492683E+02   0.1464286E+02   0.1799710E-04  -0.4744798E+01   0.1799710E-04  -0.4744798E+01   0.3000000E+00
   0.1492683E+02   0.1561905E+02   0.2010383E-04  -0.4696721E+01   0.2010383E-04  -0.4696721E+01   0.3000000E+00
   0.1492683E+02   0.1659524E+02   0.1055723E-04  -0.4976450E+01   0.1055723E-04  -0.4976450E+01   0.3000000E+00
   0.1492683E+02   0.1757143E+02   0.2308102E-04  -0.4636745E+01   0.2308102E-04  -0.4636745E+01   0.3000000E+00
   0.1492683E+02   0.1854762E+02   0.4739471E-04  -0.4324270E+01   0.4739471E-04  -0.4324270E+01   0.3000000E+00
   0.1492683E+02   0.1952381E+02   0.1995761E-04  -0.4699891E+01   0.1995761E-04  -0.4699891E+01   0.3000000E+00
   0.1492683E+02   0.2050000E+02   0.1995761E-04  -0.4699891E+01   0.1995761E-04  -0.4699891E+01   0.3000000E+00
   0.1741463E+02   0.0000000E+00   0.1320916E-04  -0.4879125E+01   0.1320916E-04  -0.4879125E+01   0.3000000E+00
   0.1741463E+02   0.9761905E+00   0.1503394E-04  -0.4822927E+01   0.1503394E-04  -0.4822927E+01   0.3000000E+00
   0.1741463E+02   0.1952381E+01   0.1740592E-04  -0.4759303E+01   0.1740592E-04  -0.4759303E+01   0.3000000E+00
   0.1741463E+02   0.2928571E+01   0.2998240E-04  -0.4523134E+01   0.2998240E-04  -0.4523134E+01   0.3000000E+00
   0.1741463E+02   0.3904762E+01   0.8733014E-05  -0.5058836E+01   0.8733014E-05  -0.5058836E+01   0.3000000E+00
   0.1741463E+02   0.4880952E+01   0.2789118E-04  -0.4554533E+01   0.2789118E-04  -0.4554533E+01   0.3000000E+00
   0.1741463E+02   0.5857143E+01   0.2753094E-04  -0.4560179E+01   0.2753094E-04  -0.4560179E+01   0.3000000E+00
   0.1741463E+02   0.6833333E+01   0.1948238E-04  -0.4710358E+01   0.1948238E-04  -0.4710358E+01   0.3000000E+00
   0.1741463E+02   0.7809524E+01   0.1720002E-04  -0.4764471E+01   0.1720002E-04  -0.4764471E+01   0.3000000E+00
   0.1741463E+02   0.8785714E+01   0.4151731E-04  -0.4381771E+01   0.4151731E-04  -0.4381771E+01   0.3000000E+00
   0.1741463E+02   0.9761905E+01   0.6963105E-04  -0.4157197E+01   0.6963105E-04  -0.4157197E+01   0.3000000E+00
   0.1741463E+02   0.1073810E+02   0.2961159E-07  -0.7528538E+01   0.2961159E-07  -0.7528538E+01   0.3000000E+00
   0.1741463E+02   0.1171429E+02   0.4665433E-07  -0.7331108E+01   0.4665433E-07  -0.7331108E+01   0.3000000E+00
   0.1741463E+02   0.1269048E+02   0.3550118E-07  -0.7449757E+01   0.3550118E-07  -0.7449757E+01   0.3000000E+00
   0.1741463E+02   0.1366667E+02   0.4429917E-07  -0.7353604E+01   0.4429917E-07  -0.7353604E+01   0.3000000E+00
   0.1741463E+02   0.1464286E+02   0.1020635E-04  -0.4991129E+01   0.1020635E-04  -0.4991129E+01   0.3000000E+00
   0.1741463E+02   0.1561905E+02   0.1019819E-04  -0.4991477E+01   0.1019819E-04  -0.4991477E+01   0.3000000E+00
   0.1741463E+02   0.1659524E+02   0.1554145E-04  -0.4808509E+01   0.1554145E-04  -0.4808509E+01   0.3000000E+00
   0.1741463E+02   0.1757143E+02   0.1485313E-04  -0.4828182E+01   0.1485313E-04  -0.4828182E+01   0.3000000E+00
   0.1741463E+02   0.1854762E+02   0.2914579E-04  -0.4535424E+01   0.2914579E-04  -0.4535424E+01   0.3000000E+00
   0.1741463E+02   0.1952381E+02   0.3796674E-04  -0.4420597E+01   0.3796674E-04  -0.4420597E+01   0.3000000E+00
   0.1741463E+02   0.2050000E+02   0.3796674E-04  -0.4420597E+01   0.3796674E-04  -0.4420597E+01   0.3000000E+00
   0.1990244E+02   0.0000000E+00   0.2242577E-04  -0.4649253E+01   0.2242577E-04  -0.4649253E+01   0.3000000E+00
   0.1990244E+02   0.9761905E+00   0.1865493E-04  -0.4729206E+01   0.1865493E-04  -0.4729206E+01   0.3000000E+00
   0.1990244E+02   0.1952381E+01   0.1881794E-04  -0.4725428E+01   0.1881794E-04  -0.4725428E+01   0.3000000E+00
   0.1990244E+02   0.2928571E+01   0.1596838E-04  -0.4796739E+01   0.1596838E-04  -0.4796739E+01   0.3000000E+00
   0.1990244E+02   0.3904762E+01   0.1029554E-04  -0.4987351E+01   0.1029554E-04  -0.4987351E+01   0.3000000E+00
   0.1990244E+02   0.4880952E+01   0.4048010E-04  -0.4392758E+01   0.4048010E-04  -0.4392758E+01   0.3000000E+00
   0.1990244E+02   0.5857143E+01   0.3226589E-04  -0.4491256E+01   0.3226589E-04  -0.4491256E+01   0.3000000E+00
   0.1990244E+02   0.6833333E+01   0.2050176E-04  -0.4688209E+01   0.2050176E-04  -0.4688209E+01   0.3000000E+00
   0.1990244E+02   0.7809524E+01   0.2064164E-04  -0.4685256E+01   0.2064164E-04  -0.4685256E+01   0.3000000E+00
   0.1990244E+02   0.8785714E+01   0.2445686E-04  -0.4611599E+01   0.2445686E-04  -0.4611599E+01   0.3000000E+00
   0.1990244E+02   0.9761905E+01   0.4242384E-04  -0.4372390E+01   0.4242384E-04  -0.4372390E+01   0.3000000E+00
   0.1990244E+02   0.1073810E+02   0.3599809E-07  -0.7443721E+01   0.3599809E-07  -0.7443721E+01   0.3000000E+00
   0.1990244E+02   0.1171429E+02   0.1752040E-07  -0.7756456E+01   0.1752040E-07  -0.7756456E+01   0.3000000E+00
   0.1990244E+02   0.1269048E+02   0.2184705E-07  -0.7660607E+01   0.2184705E-07  -0.7660607E+01   0.3000000E+00
   0.1990244E+02   0.1366667E+02   0.2716871E-07  -0.7565931E+01   0.2716871E-07  -0.7565931E+01   0.3000000E+00
   0.1990244E+02   0.1464286E+02   0.3040207E-04  -0.4517097E+01   0.3040207E-04  -0.4517097E+01   0.3000000E+00
   0.1990244E+02   0.1561905E+02   0.1798271E-04  -0.4745145E+01   0.1798271E-04  -0.4745145E+01   0.3000000E+00
   0.1990244E+02   0.1659524E+02   0.1729315E-04  -0.4762126E+01   0.1729315E-04  -0.4762126E+01   0.3000000E+00
   0.1990244E+02   0.1757143E+02   0.1227188E-04  -0.4911089E+01   0.1227188E-04  -0.4911089E+01   0.3000000E+00
   0.1990244E+02   0.1854762E+02   0.1539296E-04  -0.4812678E+01   0.1539296E-04  -0.4812678E+01   0.3000000E+00
   0.1990244E+02   0.1952381E+02   0.1150533E-04  -0.4939101E+01   0.1150533E-04  -0.4939101E+01   0.3000000E+00
   0.1990244E+02   0.2050000E+02   0.1150533E-04  -0.4939101E+01   0.1150533E-04  -0.4939101E+01   0.3000000E+00
   0.2239024E+02   0.0000000E+00   0.3315225E-04  -0.4479487E+01   0.3315225E-04  -0.4479487E+01   0.3000000E+00
   0.2239024E+02   0.9761905E+00   0.1421945E-04  -0.4847117E+01   0.1421945E-04  -0.4847117E+01   0.3000000E+00
   0.2239024E+02   0.1952381E+01   0.8236789E-05  -0.5084242E+01   0.8236789E-05  -0.5084242E+01   0.3000000E+00
   0.2239024E+02   0.2928571E+01   0.2273284E-04  -0.4643346E+01   0.2273284E-04  -0.4643346E+01   0.3000000E+00
   0.2239024E+02   0.3904762E+01   0.4996439E-04  -0.4301339E+01   0.4996439E-04  -0.4301339E+01   0.3000000E+00
   0.2239024E+02   0.4880952E+01   0.3992132E-04  -0.4398795E+01   0.3992132E-04  -0.4398795E+01   0.3000000E+00
   0.2239024E+02   0.5857143E+01   0.1362370E-04  -0.4865705E+01   0.1362370E-04  -0.4865705E+01   0.3000000E+00
   0.2239024E+02   0.6833333E+01   0.1233216E-04  -0.4908961E+01   0.1233216E-04  -0.4908961E+01   0.3000000E+00
   0.2239024E+02   0.7809524E+01   0.1132498E-04  -0.4945963E+01   0.1132498E-04  -0.4945963E+01   0.3000000E+00
   0.2239024E+02   0.8785714E+01   0.2030791E-04  -0.4692335E+01   0.2030791E-04  -0.4692335E+01   0.3000000E+00
   0.2239024E+02   0.9761905E+01   0.4194296E-04  -0.4377341E+01   0.4194296E-04  -0.4377341E+01   0.3000000E+00
   0.2239024E+02   0.1073810E+02   0.4812808E-07  -0.7317601E+01   0.4812808E-07  -0.7317601E+01   0.3000000E+00
   0.2239024E+02   0.1171429E+02   0.5245553E-07  -0.7280209E+01   0.5245553E-07  -0.7280209E+01   0.3000000E+00
   0.2239024E+02   0.1269048E+02   0.6912150E-07  -0.7160387E+01   0.6912150E-07  -0.7160387E+01   0.3000000E+00
   0.2239024E+02   0.1366667E+02   0.5962446E-07  -0.7224576E+01   0.5962446E-07  -0.7224576E+01   0.3000000E+00
   0.2239024E+02   0.1464286E+02   0.2232954E-04  -0.4651120E+01   0.2232954E-04  -0.4651120E+01   0.3000000E+00
   0.2239024E+02   0.1561905E+02   0.3194164E-04  -0.4495643E+01   0.3194164E-04  -0.4495643E+01   0.3000000E+00
   0.2239024E+02   0.1659524E+02   0.5333595E-04  -0.4272980E+01   0.5333595E-04  -0.4272980E+01   0.3000000E+00
   0.2239024E+02   0.1757143E+02   0.5164589E-04  -0.4286964E+01   0.5164589E-04  -0.4286964E+01   0.3000000E+00
   0.2239024E+02   0.1854762E+02   0.1692701E-04  -0.4771420E+01   0.1692701E-04  -0.4771420E+01   0.3000000E+00
   0.2239024E+02   0.1952381E+02   0.1269630E-04  -0.4896323E+01   0.1269630E-04  -0.4896323E+01   0.3000000E+00
   0.2239024E+02   0.2050000E+02   0.1269630E-04  -0.4896323E+01   0.1269630E-04  -0.4896323E+01   0.3000000E+00
   0.2487805E+02   0.0000000E+00   0.1979859E-04  -0.4703366E+01   0.1979859E-04  -0.4703366E+01   0.3000000E+00
   0.2487805E+02   0.9761905E+00   0.1938327E-04  -0.4712573E+01   0.1938327E-04  -0.4712573E+01   0.3000000E+00
   0.2487805E+02   0.1952381E+01   0.1538066E-04  -0.4813025E+01   0.1538066E-04  -0.4813025E+01   0.3000000E+00
   0.2487805E+02   0.2928571E+01   0.4144265E-04  -0.4382552E+01   0.4144265E-04  -0.4382552E+01   0.3000000E+00
   0.2487805E+02   0.3904762E+01   0.2170213E-04  -0.4663498E+01   0.2170213E-04  -0.4663498E+01   0.3000000E+00
   0.2487805E+02   0.4880952E+01   0.1750367E-04  -0.4756871E+01   0.1750367E-04  -0.4756871E+01   0.3000000E+00
   0.2487805E+02   0.5857143E+01   0.1198206E-04  -0.4921468E+01   0.1198206E-04  -0.4921468E+01   0.3000000E+00
   0.2487805E+02   0.6833333E+01   0.2079704E-04  -0.4681999E+01   0.2079704E-04  -0.4681999E+01   0.3000000E+00
   0.2487805E+02   0.7809524E+01   0.2147975E-04  -0.4667971E+01   0.2147975E-04  -0.4667971E+01   0.3000000E+00
   0.2487805E+02   0.8785714E+01   0.3131229E-04  -0.4504285E+01   0.3131229E-04  -0.4504285E+01   0.3000000E+00
   0.2487805E+02   0.9761905E+01   0.2548807E-04  -0.4593663E+01   0.2548807E-04  -0.4593663E+01   0.3000000E+00
   0.2487805E+02   0.1073810E+02   0.9868824E-07  -0.7005735E+01   0.9868824E-07  -0.7005735E+01   0.3000000E+00
   0.2487805E+02   0.1171429E+02   0.6512873E-07  -0.7186227E+01   0.6512873E-07  -0.7186227E+01   0.3000000E+00
   0.2487805E+02   0.1269048E+02   0.8370225E-07  -0.7077263E+01   0.8370225E-07  -0.7077263E+01   0.3000000E+00
   0.2487805E+02   0.1366667E+02   0.7735969E-07  -0.7111485E+01   0.7735969E-07  -0.7111485E+01   0.3000000E+00
   0.2487805E+02   0.1464286E+02   0.2801417E-04  -0.4552622E+01   0.2801417E-04  -0.4552622E+01   0.3000000E+00
   0.2487805E+02   0.1561905E+02   0.3268155E-04  -0.4485697E+01   0.3268155E-04  -0.4485697E+01   0.3000000E+00
   0.2487805E+02   0.1659524E+02   0.4016960E-04  -0.4396102E+01   0.4016960E-04  -0.4396102E+01   0.3000000E+00
   0.2487805E+02   0.1757143E+02   0.4718191E-04  -0.4326224E+01   0.4718191E-04  -0.4326224E+01   0.3000000E+00
   0.2487805E+02   0.1854762E+02   0.2107759E-04  -0.4676179E+01   0.2107759E-04  -0.4676179E+01   0.3000000E+00
   0.2487805E+02   0.1952381E+02   0.1258129E-04  -0.4900275E+01   0.1258129E-04  -0.4900275E+01   0.3000000E+00
   0.2487805E+02   0.2050000E+02   0.1258129E-04  -0.4900275E+01   0.1258129E-04  -0.4900275E+01   0.3000000E+00
   0.2736585E+02   0.0000000E+00   0.3876860E-04  -0.4411520E+01   0.3876860E-04  -0.4411520E+01   0.3000000E+00
   0.2736585E+02   0.9761905E+00   0.3570214E-04  -0.4447306E+01   0.3570214E-04  -0.4447306E+01   0.3000000E+00
   0.2736585E+02   0.1952381E+01   0.3111875E-04  -0.4506978E+01   0.3111875E-04  -0.4506978E+01   0.3000000E+00
   0.2736585E+02   0.2928571E+01   0.3441906E-04  -0.4463201E+01   0.3441906E-04  -0.4463201E+01   0.3000000E+00
   0.2736585E+02   0.3904762E+01   0.4947713E-04  -0.4305595E+01   0.4947713E-04  -0.4305595E+01   0.3000000E+00
   0.2736585E+02   0.4880952E+01   0.1741811E-04  -0.4758999E+01   0.1741811E-04  -0.4758999E+01   0.3000000E+00
   0.2736585E+02   0.5857143E+01   0.1398395E-04  -0.4854370E+01   0.1398395E-04  -0.4854370E+01   0.3000000E+00
   0.2736585E+02   0.6833333E+01   0.9865172E-05  -0.5005895E+01   0.9865172E-05  -0.5005895E+01   0.3000000E+00
   0.2736585E+02   0.7809524E+01   0.1681230E-04  -0.4774373E+01   0.1681230E-04  -0.4774373E+01   0.3000000E+00
   0.2736585E+02   0.8785714E+01   0.2059422E-04  -0.4686255E+01   0.2059422E-04  -0.4686255E+01   0.3000000E+00
   0.2736585E+02   0.9761905E+01   0.3173469E-04  -0.4498466E+01   0.3173469E-04  -0.4498466E+01   0.3000000E+00
   0.2736585E+02   0.1073810E+02   0.4983815E-06  -0.6302438E+01   0.4983815E-06  -0.6302438E+01   0.3000000E+00
   0.2736585E+02   0.1171429E+02   0.1794445E-06  -0.6746070E+01   0.1794445E-06  -0.6746070E+01   0.3000000E+00
   0.2736585E+02   0.1269048E+02   0.1837481E-06  -0.6735777E+01   0.1837481E-06  -0.6735777E+01   0.3000000E+00
   0.2736585E+02   0.1366667E+02   0.1568776E-06  -0.6804439E+01   0.1568776E-06  -0.6804439E+01   0.3000000E+00
   0.2736585E+02   0.1464286E+02   0.9863199E-05  -0.5005982E+01   0.9863199E-05  -0.5005982E+01   0.3000000E+00
   0.2736585E+02   0.1561905E+02   0.1602757E-04  -0.4795132E+01   0.1602757E-04  -0.4795132E+01   0.3000000E+00
   0.2736585E+02   0.1659524E+02   0.2196632E-04  -0.4658243E+01   0.2196632E-04  -0.4658243E+01   0.3000000E+00
   0.2736585E+02   0.1757143E+02   0.2258104E-04  -0.4646256E+01   0.2258104E-04  -0.4646256E+01   0.3000000E+00
   0.2736585E+02   0.1854762E+02   0.2094732E-04  -0.4678872E+01   0.2094732E-04  -0.4678872E+01   0.3000000E+00
   0.2736585E+02   0.1952381E+02   0.1265574E-04  -0.4897713E+01   0.1265574E-04  -0.4897713E+01   0.3000000E+00
   0.2736585E+02   0.2050000E+02   0.1265574E-04  -0.4897713E+01   0.1265574E-04  -0.4897713E+01   0.3000000E+00