title="2d vectors xz, t=    0.150E+03"
variables="x","z","vx","vz"
zone i=    21, j=    41, T="   0.150E+03"
  0.124390E+01  0.488071E+00  0.152197E-06 -0.666437E-08
  0.124390E+01  0.146421E+01  0.248331E-06  0.121341E-08
  0.124390E+01  0.244035E+01  0.143064E-06  0.961294E-08
  0.124390E+01  0.341649E+01  0.144359E-06 -0.251537E-08
  0.124390E+01  0.439264E+01  0.280949E-06 -0.141084E-08
  0.124390E+01  0.536878E+01  0.134498E-06  0.978137E-08
  0.124390E+01  0.634492E+01  0.128752E-06  0.206286E-08
  0.124390E+01  0.732106E+01  0.276281E-06 -0.147556E-07
  0.124390E+01  0.829720E+01  0.726333E-06  0.192770E-07
  0.124390E+01  0.927334E+01  0.330567E-06  0.218217E-07
  0.124390E+01  0.102495E+02  0.388645E-06  0.978154E-09
  0.124390E+01  0.112256E+02  0.501039E-10  0.121402E-10
  0.124390E+01  0.122018E+02  0.507541E-10  0.252225E-10
  0.124390E+01  0.131779E+02  0.111669E-09  0.242680E-10
  0.124390E+01  0.141540E+02  0.139574E-09  0.371005E-10
  0.124390E+01  0.151302E+02  0.230230E-09 -0.407990E-10
  0.124390E+01  0.161063E+02  0.123627E-05 -0.122062E-06
  0.124390E+01  0.170825E+02  0.482151E-06  0.577076E-08
  0.124390E+01  0.180586E+02  0.272470E-06 -0.496198E-09
  0.124390E+01  0.190348E+02  0.231423E-06 -0.949291E-08
  0.124390E+01  0.200109E+02  0.210918E-06  0.341800E-07
  0.373171E+01  0.487992E+00  0.197562E-06  0.188510E-08
  0.373171E+01  0.146398E+01  0.121754E-06  0.170867E-07
  0.373171E+01  0.243996E+01  0.174042E-06  0.272005E-07
  0.373171E+01  0.341594E+01  0.130550E-06  0.189645E-07
  0.373171E+01  0.439193E+01  0.223511E-06  0.343989E-07
  0.373171E+01  0.536791E+01  0.135371E-06  0.171176E-07
  0.373171E+01  0.634389E+01  0.180868E-06 -0.968082E-08
  0.373171E+01  0.731988E+01  0.217885E-06 -0.119161E-07
  0.373171E+01  0.829586E+01  0.386039E-06 -0.287691E-09
  0.373171E+01  0.927184E+01  0.426101E-06 -0.817388E-08
  0.373171E+01  0.102478E+02  0.319388E-06 -0.140855E-07
  0.373171E+01  0.112238E+02  0.175895E-10  0.215991E-10
  0.373171E+01  0.121998E+02  0.196875E-10  0.187262E-10
  0.373171E+01  0.131758E+02  0.102216E-09  0.322342E-10
  0.373171E+01  0.141518E+02  0.596450E-10  0.233243E-10
  0.373171E+01  0.151277E+02  0.757163E-06 -0.125258E-06
  0.373171E+01  0.161037E+02  0.588003E-06 -0.248352E-07
  0.373171E+01  0.170797E+02  0.409895E-06  0.201218E-07
  0.373171E+01  0.180557E+02  0.365419E-06  0.314386E-07
  0.373171E+01  0.190317E+02  0.229213E-06  0.279625E-08
  0.373171E+01  0.200077E+02  0.187163E-06 -0.239982E-07
  0.621951E+01  0.487825E+00  0.131635E-06  0.134865E-07
  0.621951E+01  0.146347E+01  0.930910E-07  0.150531E-07
  0.621951E+01  0.243912E+01  0.133852E-06  0.243449E-07
  0.621951E+01  0.341477E+01  0.175121E-06  0.171669E-07
  0.621951E+01  0.439042E+01  0.220509E-06 -0.151584E-08
  0.621951E+01  0.536607E+01  0.306866E-06 -0.132820E-07
  0.621951E+01  0.634172E+01  0.167236E-06 -0.134424E-07
  0.621951E+01  0.731737E+01  0.156943E-06 -0.235801E-07
  0.621951E+01  0.829302E+01  0.301238E-06 -0.396507E-07
  0.621951E+01  0.926867E+01  0.274713E-06 -0.297512E-07
  0.621951E+01  0.102443E+02  0.181253E-06 -0.500781E-08
  0.621951E+01  0.112200E+02  0.203103E-10  0.564652E-10
  0.621951E+01  0.121956E+02  0.355958E-10  0.568512E-10
  0.621951E+01  0.131713E+02  0.143014E-09  0.518726E-10
  0.621951E+01  0.141469E+02  0.910520E-10  0.400144E-11
  0.621951E+01  0.151226E+02  0.578411E-06  0.382184E-07
  0.621951E+01  0.160982E+02  0.496572E-06  0.439813E-07
  0.621951E+01  0.170739E+02  0.426328E-06  0.312859E-07
  0.621951E+01  0.180495E+02  0.249398E-06  0.983162E-08
  0.621951E+01  0.190252E+02  0.442416E-06 -0.854877E-08
  0.621951E+01  0.200008E+02  0.177100E-06 -0.124383E-07
  0.870732E+01  0.487720E+00  0.909504E-07  0.393244E-08
  0.870732E+01  0.146316E+01  0.141945E-06  0.124143E-07
  0.870732E+01  0.243860E+01  0.994755E-07  0.746487E-08
  0.870732E+01  0.341404E+01  0.414530E-06  0.365452E-08
  0.870732E+01  0.438948E+01  0.290886E-06 -0.248124E-07
  0.870732E+01  0.536492E+01  0.139451E-06 -0.157357E-07
  0.870732E+01  0.634036E+01  0.191484E-06 -0.145950E-07
  0.870732E+01  0.731580E+01  0.240200E-06 -0.441079E-07
  0.870732E+01  0.829124E+01  0.228205E-06 -0.261305E-07
  0.870732E+01  0.926668E+01  0.175924E-06 -0.102811E-08
  0.870732E+01  0.102421E+02  0.156122E-06  0.186803E-08
  0.870732E+01  0.112176E+02  0.288866E-10  0.106837E-09
  0.870732E+01  0.121930E+02  0.430266E-10  0.153012E-09
  0.870732E+01  0.131684E+02  0.175495E-09  0.169573E-09
  0.870732E+01  0.141439E+02  0.281691E-09  0.134583E-09
  0.870732E+01  0.151193E+02  0.343742E-06 -0.757612E-09
  0.870732E+01  0.160948E+02  0.339982E-06  0.111963E-08
  0.870732E+01  0.170702E+02  0.303611E-06 -0.657350E-08
  0.870732E+01  0.180456E+02  0.343496E-06 -0.275601E-07
  0.870732E+01  0.190211E+02  0.225739E-06 -0.126747E-07
  0.870732E+01  0.199965E+02  0.230790E-06 -0.509407E-08
  0.111951E+02  0.487598E+00  0.828611E-07 -0.336601E-08
  0.111951E+02  0.146279E+01  0.115138E-06 -0.165045E-08
  0.111951E+02  0.243799E+01  0.197253E-06 -0.134315E-07
  0.111951E+02  0.341319E+01  0.165889E-06  0.295156E-08
  0.111951E+02  0.438838E+01  0.387091E-06  0.202966E-07
  0.111951E+02  0.536358E+01  0.207183E-06 -0.199569E-07
  0.111951E+02  0.633878E+01  0.234180E-06 -0.206345E-07
  0.111951E+02  0.731397E+01  0.247987E-06  0.553505E-09
  0.111951E+02  0.828917E+01  0.138325E-06  0.114728E-07
  0.111951E+02  0.926437E+01  0.169497E-06  0.121619E-07
  0.111951E+02  0.102396E+02  0.173830E-06  0.438900E-08
  0.111951E+02  0.112148E+02  0.491901E-10  0.101518E-09
  0.111951E+02  0.121900E+02  0.382040E-10  0.157952E-09
  0.111951E+02  0.131652E+02  0.106716E-09  0.173158E-09
  0.111951E+02  0.141404E+02  0.191104E-09  0.208843E-09
  0.111951E+02  0.151155E+02  0.319204E-06  0.326007E-08
  0.111951E+02  0.160907E+02  0.338361E-06  0.353071E-08
  0.111951E+02  0.170659E+02  0.269977E-06 -0.772927E-08
  0.111951E+02  0.180411E+02  0.257383E-06 -0.499673E-09
  0.111951E+02  0.190163E+02  0.171779E-06 -0.788753E-09
  0.111951E+02  0.199915E+02  0.227016E-06 -0.172081E-07
  0.136829E+02  0.487490E+00  0.104990E-06 -0.271768E-08
  0.136829E+02  0.146247E+01  0.108381E-06 -0.801266E-08
  0.136829E+02  0.243745E+01  0.238210E-06 -0.134593E-07
  0.136829E+02  0.341243E+01  0.142041E-06 -0.176310E-07
  0.136829E+02  0.438741E+01  0.612024E-06 -0.258379E-07
  0.136829E+02  0.536239E+01  0.235785E-06  0.363658E-08
  0.136829E+02  0.633736E+01  0.179007E-06  0.106698E-07
  0.136829E+02  0.731234E+01  0.232102E-06  0.251213E-07
  0.136829E+02  0.828732E+01  0.166450E-06  0.317005E-07
  0.136829E+02  0.926230E+01  0.239182E-06  0.291563E-07
  0.136829E+02  0.102373E+02  0.214027E-06  0.125351E-07
  0.136829E+02  0.112123E+02  0.178404E-09  0.192270E-09
  0.136829E+02  0.121872E+02  0.732404E-10  0.132814E-09
  0.136829E+02  0.131622E+02  0.648908E-10  0.943557E-10
  0.136829E+02  0.141372E+02  0.227148E-09  0.154569E-09
  0.136829E+02  0.151122E+02  0.223117E-06  0.279669E-08
  0.136829E+02  0.160872E+02  0.249191E-06  0.105653E-07
  0.136829E+02  0.170621E+02  0.235445E-06  0.376823E-07
  0.136829E+02  0.180371E+02  0.221689E-06  0.418304E-07
  0.136829E+02  0.190121E+02  0.194117E-06  0.240959E-08
  0.136829E+02  0.199871E+02  0.188137E-06 -0.161658E-07
  0.161707E+02  0.487268E+00  0.155021E-06 -0.991748E-08
  0.161707E+02  0.146180E+01  0.166174E-06 -0.246041E-07
  0.161707E+02  0.243634E+01  0.268115E-06 -0.159209E-07
  0.161707E+02  0.341088E+01  0.190316E-06 -0.278105E-07
  0.161707E+02  0.438541E+01  0.409097E-06  0.157903E-07
  0.161707E+02  0.535995E+01  0.176681E-06  0.450763E-07
  0.161707E+02  0.633449E+01  0.232797E-06  0.370827E-07
  0.161707E+02  0.730902E+01  0.147446E-06  0.220040E-07
  0.161707E+02  0.828356E+01  0.182813E-06  0.319649E-07
  0.161707E+02  0.925810E+01  0.206999E-06  0.274006E-07
  0.161707E+02  0.102326E+02  0.328443E-06  0.157219E-07
  0.161707E+02  0.112072E+02  0.191269E-09  0.234366E-09
  0.161707E+02  0.121817E+02  0.266200E-09  0.271164E-09
  0.161707E+02  0.131562E+02  0.154826E-09  0.204029E-09
  0.161707E+02  0.141308E+02  0.390391E-09  0.193320E-09
  0.161707E+02  0.151053E+02  0.225171E-06  0.575423E-08
  0.161707E+02  0.160799E+02  0.260949E-06  0.219434E-07
  0.161707E+02  0.170544E+02  0.136995E-06  0.179052E-07
  0.161707E+02  0.180289E+02  0.271997E-06  0.380561E-07
  0.161707E+02  0.190035E+02  0.527619E-06  0.504387E-07
  0.161707E+02  0.199780E+02  0.237790E-06  0.338548E-08
  0.186585E+02  0.487050E+00  0.161351E-06 -0.537629E-08
  0.186585E+02  0.146115E+01  0.183625E-06 -0.152596E-07
  0.186585E+02  0.243525E+01  0.204386E-06 -0.168084E-07
  0.186585E+02  0.340935E+01  0.343122E-06 -0.668995E-08
  0.186585E+02  0.438345E+01  0.105105E-06  0.184561E-07
  0.186585E+02  0.535756E+01  0.333239E-06  0.510673E-07
  0.186585E+02  0.633166E+01  0.300490E-06  0.165553E-07
  0.186585E+02  0.730576E+01  0.191740E-06  0.431729E-08
  0.186585E+02  0.827986E+01  0.146987E-06 -0.222618E-08
  0.186585E+02  0.925396E+01  0.301487E-06 -0.142028E-08
  0.186585E+02  0.102281E+02  0.456293E-06  0.752194E-09
  0.186585E+02  0.112022E+02  0.186470E-09  0.470335E-09
  0.186585E+02  0.121763E+02  0.375893E-09  0.749862E-09
  0.186585E+02  0.131504E+02  0.435067E-09  0.825660E-09
  0.186585E+02  0.141245E+02  0.870506E-09  0.837263E-09
  0.186585E+02  0.150986E+02  0.246593E-06 -0.846003E-08
  0.186585E+02  0.160727E+02  0.223379E-06 -0.237365E-07
  0.186585E+02  0.170468E+02  0.292830E-06 -0.421877E-07
  0.186585E+02  0.180209E+02  0.240686E-06 -0.552699E-07
  0.186585E+02  0.189950E+02  0.400955E-06 -0.431980E-07
  0.186585E+02  0.199691E+02  0.445262E-06 -0.177887E-07
  0.211463E+02  0.486880E+00  0.237557E-06 -0.133179E-07
  0.211463E+02  0.146064E+01  0.194586E-06 -0.232510E-07
  0.211463E+02  0.243440E+01  0.210838E-06  0.665161E-09
  0.211463E+02  0.340816E+01  0.200265E-06  0.228480E-07
  0.211463E+02  0.438192E+01  0.125411E-06  0.108190E-07
  0.211463E+02  0.535568E+01  0.425453E-06 -0.647103E-07
  0.211463E+02  0.632944E+01  0.297692E-06 -0.609907E-07
  0.211463E+02  0.730320E+01  0.178545E-06 -0.277011E-07
  0.211463E+02  0.827696E+01  0.188944E-06 -0.151150E-07
  0.211463E+02  0.925072E+01  0.250078E-06  0.632496E-09
  0.211463E+02  0.102245E+02  0.467469E-06  0.713212E-08
  0.211463E+02  0.111982E+02  0.454569E-09  0.690925E-09
  0.211463E+02  0.121720E+02  0.284932E-09  0.465548E-09
  0.211463E+02  0.131458E+02  0.380595E-09  0.578332E-09
  0.211463E+02  0.141195E+02  0.389354E-09  0.725848E-09
  0.211463E+02  0.150933E+02  0.400262E-06 -0.258572E-08
  0.211463E+02  0.160670E+02  0.291652E-06 -0.186827E-07
  0.211463E+02  0.170408E+02  0.343986E-06 -0.422685E-07
  0.211463E+02  0.180146E+02  0.273592E-06 -0.563939E-07
  0.211463E+02  0.189883E+02  0.354029E-06 -0.779537E-07
  0.211463E+02  0.199621E+02  0.260768E-06 -0.336987E-07
  0.236341E+02  0.486470E+00  0.439589E-06  0.950146E-08
  0.236341E+02  0.145941E+01  0.204522E-06  0.470261E-08
  0.236341E+02  0.243235E+01  0.118211E-06  0.291829E-08
  0.236341E+02  0.340529E+01  0.278380E-06 -0.193916E-07
  0.236341E+02  0.437823E+01  0.517569E-06 -0.120481E-06
  0.236341E+02  0.535117E+01  0.420703E-06 -0.778936E-07
  0.236341E+02  0.632411E+01  0.165399E-06 -0.988986E-08
  0.236341E+02  0.729706E+01  0.168848E-06  0.155630E-08
  0.236341E+02  0.827000E+01  0.159934E-06  0.316231E-09
  0.236341E+02  0.924294E+01  0.269283E-06 -0.404182E-08
  0.236341E+02  0.102159E+02  0.512214E-06 -0.107690E-07
  0.236341E+02  0.111888E+02  0.595837E-09  0.116349E-08
  0.236341E+02  0.121618E+02  0.623979E-09  0.155677E-08
  0.236341E+02  0.131347E+02  0.737179E-09  0.160468E-08
  0.236341E+02  0.141076E+02  0.691930E-09  0.146130E-08
  0.236341E+02  0.150806E+02  0.274524E-06  0.206078E-07
  0.236341E+02  0.160535E+02  0.343959E-06  0.593466E-07
  0.236341E+02  0.170265E+02  0.506542E-06  0.426450E-07
  0.236341E+02  0.179994E+02  0.509027E-06 -0.403138E-07
  0.236341E+02  0.189723E+02  0.194744E-06 -0.484899E-07
  0.236341E+02  0.199453E+02  0.165068E-06 -0.274510E-07
  0.261220E+02  0.486230E+00  0.335198E-06  0.780567E-08
  0.261220E+02  0.145869E+01  0.307916E-06  0.823950E-08
  0.261220E+02  0.243115E+01  0.232597E-06 -0.272702E-07
  0.261220E+02  0.340361E+01  0.658774E-06 -0.885152E-07
  0.261220E+02  0.437607E+01  0.375153E-06 -0.521017E-07
  0.261220E+02  0.534853E+01  0.297617E-06 -0.390253E-07
  0.261220E+02  0.632099E+01  0.180384E-06 -0.160006E-07
  0.261220E+02  0.729345E+01  0.268232E-06 -0.169418E-07
  0.261220E+02  0.826591E+01  0.253356E-06 -0.161210E-07
  0.261220E+02  0.923837E+01  0.378331E-06 -0.279195E-07
  0.261220E+02  0.102108E+02  0.327012E-06 -0.848711E-08
  0.261220E+02  0.111833E+02  0.115968E-08  0.216445E-08
  0.261220E+02  0.121558E+02  0.815698E-09  0.212879E-08
  0.261220E+02  0.131282E+02  0.116224E-08  0.172157E-08
  0.261220E+02  0.141007E+02  0.849617E-09  0.171406E-08
  0.261220E+02  0.150731E+02  0.257367E-06  0.127781E-07
  0.261220E+02  0.160456E+02  0.329842E-06  0.241477E-07
  0.261220E+02  0.170181E+02  0.440626E-06  0.365625E-07
  0.261220E+02  0.179905E+02  0.541090E-06  0.615320E-07
  0.261220E+02  0.189630E+02  0.262708E-06  0.382746E-07
  0.261220E+02  0.199354E+02  0.170668E-06 -0.248922E-08
  0.286098E+02  0.485993E+00  0.429589E-06 -0.141257E-07
  0.286098E+02  0.145798E+01  0.405920E-06 -0.268272E-07
  0.286098E+02  0.242996E+01  0.363826E-06 -0.537315E-07
  0.286098E+02  0.340195E+01  0.390603E-06 -0.372772E-07
  0.286098E+02  0.437393E+01  0.556242E-06 -0.830104E-08
  0.286098E+02  0.534592E+01  0.223553E-06 -0.194101E-07
  0.286098E+02  0.631790E+01  0.204131E-06 -0.409468E-07
  0.286098E+02  0.728989E+01  0.147324E-06 -0.383269E-07
  0.286098E+02  0.826187E+01  0.235426E-06 -0.485347E-07
  0.286098E+02  0.923386E+01  0.263762E-06 -0.222823E-07
  0.286098E+02  0.102058E+02  0.386988E-06  0.636950E-08
  0.286098E+02  0.111778E+02  0.650326E-08  0.103847E-07
  0.286098E+02  0.121498E+02  0.222851E-08  0.613408E-08
  0.286098E+02  0.131218E+02  0.228692E-08  0.416335E-08
  0.286098E+02  0.140938E+02  0.270533E-08  0.391404E-08
  0.286098E+02  0.150658E+02  0.196257E-06 -0.124966E-08
  0.286098E+02  0.160378E+02  0.299712E-06  0.919133E-08
  0.286098E+02  0.170097E+02  0.405318E-06  0.590034E-07
  0.286098E+02  0.179817E+02  0.450262E-06  0.104271E-06
  0.286098E+02  0.189537E+02  0.440361E-06  0.801357E-07
  0.286098E+02  0.199257E+02  0.267787E-06  0.122075E-07
  0.310976E+02  0.485589E+00  0.428719E-06 -0.452693E-09
  0.310976E+02  0.145677E+01  0.434062E-06 -0.161085E-07
  0.310976E+02  0.242794E+01  0.380070E-06 -0.394103E-07
  0.310976E+02  0.339912E+01  0.309963E-06 -0.625618E-07
  0.310976E+02  0.437030E+01  0.228460E-06 -0.239310E-07
  0.310976E+02  0.534148E+01  0.405545E-06 -0.225827E-08
  0.310976E+02  0.631266E+01  0.292907E-06 -0.106163E-07
  0.310976E+02  0.728383E+01  0.244213E-06 -0.286449E-07
  0.310976E+02  0.825501E+01  0.182922E-06 -0.240450E-07
  0.310976E+02  0.922619E+01  0.207690E-06 -0.133520E-07
  0.310976E+02  0.101974E+02  0.359015E-06  0.120992E-08
  0.310976E+02  0.111685E+02  0.178101E-07  0.234904E-07
  0.310976E+02  0.121397E+02  0.109393E-07  0.240150E-07
  0.310976E+02  0.131109E+02  0.892664E-08  0.129601E-07
  0.310976E+02  0.140821E+02  0.456107E-08  0.583951E-08
  0.310976E+02  0.150533E+02  0.285287E-06  0.101283E-08
  0.310976E+02  0.160244E+02  0.242550E-06  0.263798E-08
  0.310976E+02  0.169956E+02  0.293926E-06  0.170629E-07
  0.310976E+02  0.179668E+02  0.410947E-06  0.507280E-07
  0.310976E+02  0.189380E+02  0.692071E-06  0.943007E-07
  0.310976E+02  0.199091E+02  0.539574E-06  0.362049E-07
  0.335854E+02  0.485101E+00  0.445681E-06 -0.143928E-07
  0.335854E+02  0.145530E+01  0.552310E-06 -0.482542E-07
  0.335854E+02  0.242550E+01  0.649044E-06 -0.595438E-07
  0.335854E+02  0.339571E+01  0.306680E-06 -0.524143E-07
  0.335854E+02  0.436591E+01  0.239427E-06 -0.341622E-07
  0.335854E+02  0.533611E+01  0.350055E-06 -0.145639E-07
  0.335854E+02  0.630631E+01  0.194095E-06  0.581785E-08
  0.335854E+02  0.727651E+01  0.397979E-06  0.271072E-07
  0.335854E+02  0.824671E+01  0.218700E-06  0.101196E-07
  0.335854E+02  0.921691E+01  0.249339E-06 -0.328491E-08
  0.335854E+02  0.101871E+02  0.288039E-06  0.438010E-08
  0.335854E+02  0.111573E+02  0.902896E-08  0.153559E-07
  0.335854E+02  0.121275E+02  0.612243E-08  0.121990E-07
  0.335854E+02  0.130977E+02  0.861804E-08  0.127334E-07
  0.335854E+02  0.140679E+02  0.872973E-08  0.108396E-07
  0.335854E+02  0.150381E+02  0.282851E-06  0.500121E-07
  0.335854E+02  0.160083E+02  0.378608E-06  0.447048E-07
  0.335854E+02  0.169785E+02  0.351046E-06  0.376184E-08
  0.335854E+02  0.179487E+02  0.457179E-06 -0.270785E-07
  0.335854E+02  0.189189E+02  0.627174E-06 -0.583008E-07
  0.335854E+02  0.198891E+02  0.106003E-05 -0.442537E-07
  0.360732E+02  0.484866E+00  0.586170E-06 -0.219178E-07
  0.360732E+02  0.145460E+01  0.450920E-06 -0.341078E-07
  0.360732E+02  0.242433E+01  0.506173E-06 -0.556910E-08
  0.360732E+02  0.339406E+01  0.364442E-06  0.294357E-08
  0.360732E+02  0.436380E+01  0.201021E-06  0.412202E-08
  0.360732E+02  0.533353E+01  0.403966E-06  0.181710E-07
  0.360732E+02  0.630326E+01  0.300103E-06  0.547361E-08
  0.360732E+02  0.727299E+01  0.274136E-06  0.208223E-08
  0.360732E+02  0.824273E+01  0.314992E-06  0.485743E-09
  0.360732E+02  0.921246E+01  0.194922E-06 -0.385163E-08
  0.360732E+02  0.101822E+02  0.268001E-06  0.682986E-08
  0.360732E+02  0.111519E+02  0.184633E-08  0.696217E-08
  0.360732E+02  0.121217E+02  0.542747E-08  0.112059E-07
  0.360732E+02  0.130914E+02  0.519363E-08  0.766402E-08
  0.360732E+02  0.140611E+02  0.922243E-08  0.983756E-08
  0.360732E+02  0.150309E+02  0.188924E-06  0.737281E-11
  0.360732E+02  0.160006E+02  0.614218E-06 -0.469225E-07
  0.360732E+02  0.169703E+02  0.398961E-06 -0.818975E-07
  0.360732E+02  0.179401E+02  0.744919E-06 -0.130513E-06
  0.360732E+02  0.189098E+02  0.700897E-06 -0.112643E-06
  0.360732E+02  0.198795E+02  0.594164E-06 -0.427422E-07
  0.385610E+02  0.484399E+00  0.510280E-06  0.501643E-08
  0.385610E+02  0.145320E+01  0.505593E-06  0.321233E-07
  0.385610E+02  0.242199E+01  0.386485E-06  0.484356E-07
  0.385610E+02  0.339079E+01  0.359881E-06  0.776082E-07
  0.385610E+02  0.435959E+01  0.346316E-06  0.456311E-07
  0.385610E+02  0.532838E+01  0.355465E-06  0.274816E-07
  0.385610E+02  0.629718E+01  0.349039E-06  0.403803E-07
  0.385610E+02  0.726598E+01  0.297199E-06  0.388793E-07
  0.385610E+02  0.823478E+01  0.299453E-06  0.269396E-07
  0.385610E+02  0.920357E+01  0.161230E-06  0.172240E-07
  0.385610E+02  0.101724E+02  0.311424E-06  0.148860E-07
  0.385610E+02  0.111412E+02  0.968757E-09  0.824950E-08
  0.385610E+02  0.121100E+02  0.250555E-08  0.693358E-08
  0.385610E+02  0.130788E+02  0.568192E-08  0.129140E-07
  0.385610E+02  0.140476E+02  0.271235E-08  0.615534E-08
  0.385610E+02  0.150164E+02  0.509062E-06 -0.563872E-07
  0.385610E+02  0.159852E+02  0.555015E-06 -0.100046E-06
  0.385610E+02  0.169540E+02  0.496956E-06 -0.113148E-06
  0.385610E+02  0.179227E+02  0.586816E-06 -0.955788E-07
  0.385610E+02  0.188915E+02  0.587078E-06 -0.390366E-07
  0.385610E+02  0.198603E+02  0.645090E-06 -0.220325E-08
  0.410488E+02  0.483868E+00  0.463411E-06  0.261553E-07
  0.410488E+02  0.145160E+01  0.291962E-06  0.433658E-07
  0.410488E+02  0.241934E+01  0.447528E-06  0.638656E-07
  0.410488E+02  0.338707E+01  0.293118E-06  0.527390E-07
  0.410488E+02  0.435481E+01  0.436280E-06  0.112882E-06
  0.410488E+02  0.532254E+01  0.298690E-06  0.115627E-06
  0.410488E+02  0.629028E+01  0.349398E-06  0.121604E-06
  0.410488E+02  0.725801E+01  0.227327E-06  0.961636E-07
  0.410488E+02  0.822575E+01  0.253691E-06  0.888046E-07
  0.410488E+02  0.919348E+01  0.307610E-06  0.735677E-07
  0.410488E+02  0.101612E+02  0.390422E-06  0.234094E-07
  0.410488E+02  0.111290E+02  0.270951E-09  0.931108E-08
  0.410488E+02  0.120967E+02  0.220837E-08  0.169464E-07
  0.410488E+02  0.130644E+02  0.211112E-08  0.114842E-07
  0.410488E+02  0.140322E+02  0.250840E-08  0.103067E-07
  0.410488E+02  0.149999E+02  0.659941E-06 -0.143847E-07
  0.410488E+02  0.159676E+02  0.622201E-06 -0.402847E-07
  0.410488E+02  0.169354E+02  0.519704E-06 -0.140918E-07
  0.410488E+02  0.179031E+02  0.658591E-06  0.460366E-08
  0.410488E+02  0.188708E+02  0.374611E-06  0.855333E-09
  0.410488E+02  0.198386E+02  0.671170E-06 -0.710337E-08
  0.435366E+02  0.483129E+00  0.266283E-06  0.378277E-07
  0.435366E+02  0.144939E+01  0.378959E-06  0.533763E-07
  0.435366E+02  0.241564E+01  0.374831E-06  0.189533E-07
  0.435366E+02  0.338190E+01  0.310484E-06  0.272797E-07
  0.435366E+02  0.434816E+01  0.878111E-07  0.256197E-07
  0.435366E+02  0.531441E+01  0.266764E-06  0.812212E-07
  0.435366E+02  0.628067E+01  0.255338E-06  0.113412E-06
  0.435366E+02  0.724693E+01  0.289383E-06  0.131779E-06
  0.435366E+02  0.821319E+01  0.359611E-06  0.694991E-07
  0.435366E+02  0.917944E+01  0.539398E-06  0.339255E-07
  0.435366E+02  0.101457E+02  0.427114E-06  0.209085E-07
  0.435366E+02  0.111120E+02 -0.212156E-09  0.475955E-08
  0.435366E+02  0.120782E+02 -0.719114E-09  0.275380E-08
  0.435366E+02  0.130445E+02 -0.178550E-08  0.769215E-08
  0.435366E+02  0.140107E+02  0.874692E-10  0.313468E-08
  0.435366E+02  0.149770E+02  0.711586E-06  0.136088E-07
  0.435366E+02  0.159432E+02  0.386342E-06  0.333181E-07
  0.435366E+02  0.169095E+02  0.431599E-06  0.602339E-07
  0.435366E+02  0.178758E+02  0.422404E-06  0.100548E-06
  0.435366E+02  0.188420E+02  0.657462E-06  0.815162E-07
  0.435366E+02  0.198083E+02  0.838588E-06 -0.180395E-09
  0.460244E+02  0.482700E+00  0.141931E-06  0.167587E-09
  0.460244E+02  0.144810E+01  0.363310E-06  0.642454E-08
  0.460244E+02  0.241350E+01  0.353883E-06  0.206951E-07
  0.460244E+02  0.337890E+01  0.172613E-06  0.472474E-08
  0.460244E+02  0.434430E+01  0.133611E-06 -0.124208E-07
  0.460244E+02  0.530970E+01  0.159970E-06 -0.286381E-07
  0.460244E+02  0.627511E+01  0.133678E-06 -0.192927E-07
  0.460244E+02  0.724051E+01  0.229935E-06  0.114623E-07
  0.460244E+02  0.820591E+01  0.617711E-06  0.286203E-07
  0.460244E+02  0.917131E+01  0.382143E-06 -0.885352E-09
  0.460244E+02  0.101367E+02  0.479730E-06 -0.544423E-08
  0.460244E+02  0.111021E+02  0.392342E-09  0.858880E-08
  0.460244E+02  0.120675E+02  0.107278E-08  0.980779E-08
  0.460244E+02  0.130329E+02  0.544365E-09  0.491110E-08
  0.460244E+02  0.139983E+02  0.445594E-09  0.494749E-08
  0.460244E+02  0.149637E+02  0.554424E-06  0.478457E-07
  0.460244E+02  0.159291E+02  0.418353E-06  0.102502E-06
  0.460244E+02  0.168945E+02  0.364058E-06  0.125455E-06
  0.460244E+02  0.178599E+02  0.350239E-06  0.136839E-06
  0.460244E+02  0.188253E+02  0.870678E-06  0.147821E-06
  0.460244E+02  0.197907E+02  0.110945E-05  0.553995E-07
  0.485122E+02  0.482495E+00  0.129463E-06 -0.760100E-08
  0.485122E+02  0.144749E+01  0.345433E-06 -0.240376E-07
  0.485122E+02  0.241248E+01  0.295643E-06 -0.186996E-07
  0.485122E+02  0.337747E+01  0.347424E-06 -0.172762E-07
  0.485122E+02  0.434246E+01  0.189183E-06 -0.513265E-07
  0.485122E+02  0.530745E+01  0.132355E-06 -0.502321E-07
  0.485122E+02  0.627244E+01  0.706279E-07 -0.423552E-07
  0.485122E+02  0.723743E+01  0.121922E-06 -0.608696E-07
  0.485122E+02  0.820242E+01  0.280439E-06 -0.435497E-07
  0.485122E+02  0.916741E+01  0.333824E-06 -0.127057E-07
  0.485122E+02  0.101324E+02  0.194328E-06  0.218571E-08
  0.485122E+02  0.110974E+02  0.109905E-09  0.258832E-08
  0.485122E+02  0.120624E+02  0.215625E-08  0.565269E-08
  0.485122E+02  0.130274E+02  0.134060E-08  0.588567E-08
  0.485122E+02  0.139924E+02  0.716420E-09  0.530294E-08
  0.485122E+02  0.149574E+02  0.459349E-06  0.179239E-07
  0.485122E+02  0.159224E+02  0.325811E-06  0.385333E-07
  0.485122E+02  0.168873E+02  0.239664E-06  0.672535E-07
  0.485122E+02  0.178523E+02  0.428916E-06  0.934578E-07
  0.485122E+02  0.188173E+02  0.708648E-06  0.113761E-06
  0.485122E+02  0.197823E+02  0.171600E-05  0.776115E-07
  0.510000E+02  0.482316E+00  0.201544E-06 -0.193525E-07
  0.510000E+02  0.144695E+01  0.351417E-06 -0.404393E-07
  0.510000E+02  0.241158E+01  0.198454E-06 -0.292780E-07
  0.510000E+02  0.337621E+01  0.282667E-06 -0.307109E-07
  0.510000E+02  0.434084E+01  0.295033E-06 -0.503574E-07
  0.510000E+02  0.530547E+01  0.104770E-06 -0.700267E-07
  0.510000E+02  0.627011E+01  0.782581E-07 -0.538709E-07
  0.510000E+02  0.723474E+01  0.118283E-06 -0.498756E-07
  0.510000E+02  0.819937E+01  0.161688E-06 -0.306887E-07
  0.510000E+02  0.916400E+01  0.164689E-06 -0.826564E-08
  0.510000E+02  0.101286E+02  0.177472E-06  0.138436E-08
  0.510000E+02  0.110933E+02 -0.134402E-09  0.448671E-08
  0.510000E+02  0.120579E+02 -0.164988E-09  0.237306E-08
  0.510000E+02  0.130225E+02  0.239997E-10  0.223618E-08
  0.510000E+02  0.139872E+02  0.171689E-09  0.430867E-08
  0.510000E+02  0.149518E+02  0.347781E-06  0.216567E-07
  0.510000E+02  0.159164E+02  0.244007E-06  0.504943E-07
  0.510000E+02  0.168811E+02  0.213008E-06  0.448786E-07
  0.510000E+02  0.178457E+02  0.288425E-06  0.556187E-07
  0.510000E+02  0.188103E+02  0.702093E-06  0.318651E-07
  0.510000E+02  0.197750E+02  0.222489E-05 -0.167438E-07
  0.534878E+02  0.482138E+00  0.325229E-06 -0.262496E-07
  0.534878E+02  0.144641E+01  0.185322E-06 -0.269941E-07
  0.534878E+02  0.241069E+01  0.304422E-06 -0.344432E-07
  0.534878E+02  0.337497E+01  0.278521E-06 -0.444575E-07
  0.534878E+02  0.433924E+01  0.478193E-06 -0.724276E-07
  0.534878E+02  0.530352E+01  0.686826E-07 -0.236561E-07
  0.534878E+02  0.626779E+01  0.627042E-07 -0.164709E-07
  0.534878E+02  0.723207E+01  0.123101E-06 -0.132409E-07
  0.534878E+02  0.819635E+01  0.146835E-06 -0.155207E-07
  0.534878E+02  0.916062E+01  0.172832E-06 -0.195282E-07
  0.534878E+02  0.101249E+02  0.158528E-06  0.253200E-09
  0.534878E+02  0.110892E+02  0.465147E-09  0.487240E-08
  0.534878E+02  0.120534E+02  0.381964E-09  0.542162E-08
  0.534878E+02  0.130177E+02  0.682784E-09  0.566005E-08
  0.534878E+02  0.139820E+02  0.555087E-09  0.344102E-08
  0.534878E+02  0.149463E+02  0.285430E-06  0.757249E-08
  0.534878E+02  0.159106E+02  0.171438E-06  0.835768E-08
  0.534878E+02  0.168748E+02  0.307714E-06  0.191339E-07
  0.534878E+02  0.178391E+02  0.205409E-06  0.182936E-07
  0.534878E+02  0.188034E+02  0.962635E-06  0.100922E-06
  0.534878E+02  0.197677E+02  0.213174E-05  0.514445E-07
  0.559756E+02  0.481906E+00  0.527089E-06 -0.114044E-07
  0.559756E+02  0.144572E+01  0.320225E-06 -0.436622E-07
  0.559756E+02  0.240953E+01  0.258166E-06 -0.481271E-07
  0.559756E+02  0.337334E+01  0.399691E-06 -0.543328E-07
  0.559756E+02  0.433715E+01  0.176905E-06 -0.804657E-08
  0.559756E+02  0.530096E+01  0.564875E-07  0.944784E-09
  0.559756E+02  0.626478E+01  0.628263E-07  0.542177E-08
  0.559756E+02  0.722859E+01  0.120307E-06  0.602223E-08
  0.559756E+02  0.819240E+01  0.205990E-06  0.193350E-08
  0.559756E+02  0.915621E+01  0.157527E-06  0.119606E-07
  0.559756E+02  0.101200E+02  0.104523E-06  0.147761E-07
  0.559756E+02  0.110838E+02  0.460826E-08  0.234205E-07
  0.559756E+02  0.120476E+02  0.418797E-08  0.202782E-07
  0.559756E+02  0.130115E+02  0.331064E-08  0.224720E-07
  0.559756E+02  0.139753E+02  0.470025E-08  0.294667E-07
  0.559756E+02  0.149391E+02  0.438676E-06 -0.787957E-08
  0.559756E+02  0.159029E+02  0.289801E-06 -0.388818E-07
  0.559756E+02  0.168667E+02  0.300233E-06 -0.449258E-07
  0.559756E+02  0.178305E+02  0.357871E-06 -0.789267E-07
  0.559756E+02  0.187943E+02  0.356790E-06 -0.580811E-07
  0.559756E+02  0.197581E+02  0.290903E-05 -0.211735E-07
  0.584634E+02  0.481796E+00  0.788807E-06 -0.842280E-08
  0.584634E+02  0.144539E+01  0.497142E-06 -0.252617E-08
  0.584634E+02  0.240898E+01  0.430287E-06 -0.269267E-07
  0.584634E+02  0.337257E+01  0.176679E-06  0.448385E-08
  0.584634E+02  0.433617E+01  0.293391E-06  0.321562E-07
  0.584634E+02  0.529976E+01  0.542601E-07  0.144582E-07
  0.584634E+02  0.626335E+01  0.362599E-07  0.920947E-08
  0.584634E+02  0.722694E+01  0.121808E-06  0.194934E-07
  0.584634E+02  0.819054E+01  0.177941E-06  0.297034E-07
  0.584634E+02  0.915413E+01  0.125233E-06  0.328400E-07
  0.584634E+02  0.101177E+02  0.152816E-06  0.320151E-07
  0.584634E+02  0.110813E+02  0.138398E-08  0.845270E-08
  0.584634E+02  0.120449E+02  0.426615E-08  0.172529E-07
  0.584634E+02  0.130085E+02  0.336291E-08  0.249052E-07
  0.584634E+02  0.139721E+02  0.330972E-08  0.270539E-07
  0.584634E+02  0.149357E+02  0.673426E-06  0.434395E-07
  0.584634E+02  0.158993E+02  0.341250E-06  0.130986E-08
  0.584634E+02  0.168629E+02  0.441100E-06 -0.463571E-07
  0.584634E+02  0.178265E+02  0.335274E-06 -0.526103E-07
  0.584634E+02  0.187901E+02  0.755173E-06 -0.166785E-06
  0.584634E+02  0.197536E+02  0.199870E-05 -0.135104E-06
  0.609512E+02  0.481522E+00  0.657346E-06  0.331516E-07
  0.609512E+02  0.144456E+01  0.333380E-06  0.584927E-07
  0.609512E+02  0.240761E+01  0.529096E-06  0.828376E-07
  0.609512E+02  0.337065E+01  0.232626E-06  0.409655E-07
  0.609512E+02  0.433369E+01  0.272761E-06  0.411844E-07
  0.609512E+02  0.529674E+01  0.112550E-06  0.390497E-07
  0.609512E+02  0.625978E+01  0.978165E-07  0.257268E-07
  0.609512E+02  0.722282E+01  0.870140E-07  0.199656E-07
  0.609512E+02  0.818587E+01  0.175775E-06  0.242136E-07
  0.609512E+02  0.914891E+01  0.177523E-06  0.244387E-07
  0.609512E+02  0.101120E+02  0.148897E-06  0.108320E-07
  0.609512E+02  0.110750E+02  0.867606E-09  0.974365E-08
  0.609512E+02  0.120380E+02  0.186106E-08  0.113308E-07
  0.609512E+02  0.130011E+02  0.114296E-08  0.847994E-08
  0.609512E+02  0.139641E+02  0.128664E-08  0.960333E-08
  0.609512E+02  0.149272E+02  0.417374E-06  0.343980E-07
  0.609512E+02  0.158902E+02  0.645023E-06  0.567435E-07
  0.609512E+02  0.168533E+02  0.493639E-06  0.277811E-07
  0.609512E+02  0.178163E+02  0.496393E-06  0.569375E-08
  0.609512E+02  0.187793E+02  0.134737E-05 -0.123646E-06