variables="x","h","c"
zone i=     42,T= "1dxhc;t= 0.1500E+03y,z:   1   1"
    0.00000E+00    0.50000E+00    0.00000E+00
    0.24878E+01    0.49895E+00    0.22393E-21
    0.49756E+01    0.49703E+00    0.26418E-20
    0.74634E+01    0.49072E+00    0.20909E-19
    0.99512E+01    0.47808E+00    0.10042E-18
    0.12439E+02    0.46898E+00    0.22575E-18
    0.14927E+02    0.46291E+00    0.57045E-18
    0.17415E+02    0.46040E+00    0.16573E-17
    0.19902E+02    0.45803E+00    0.10869E-16
    0.22390E+02    0.45477E+00    0.11471E-16
    0.24878E+02    0.44915E+00   -0.30120E-16
    0.27366E+02    0.44324E+00    0.63787E-16
    0.29854E+02    0.43705E+00   -0.31017E-17
    0.32341E+02    0.43156E+00    0.63815E-17
    0.34829E+02    0.42690E+00    0.11566E-16
    0.37317E+02    0.42316E+00    0.13892E-15
    0.39805E+02    0.41870E+00    0.76496E-14
    0.42293E+02    0.41233E+00    0.17618E-12
    0.44780E+02    0.39896E+00    0.18815E-11
    0.47268E+02    0.38743E+00    0.18852E-10
    0.49756E+02    0.37941E+00    0.10992E-09
    0.52244E+02    0.37670E+00    0.43420E-09
    0.54732E+02    0.37242E+00    0.15550E-08
    0.57220E+02    0.37032E+00    0.55977E-08
    0.59707E+02    0.36954E+00    0.11898E-07
    0.62195E+02    0.36518E+00    0.51625E-07
    0.64683E+02    0.35926E+00    0.17666E-06
    0.67171E+02    0.35178E+00    0.73367E-06
    0.69659E+02    0.34480E+00    0.33502E-05
    0.72146E+02    0.33719E+00    0.15265E-04
    0.74634E+02    0.33178E+00    0.65220E-04
    0.77122E+02    0.32753E+00    0.28879E-03
    0.79610E+02    0.32337E+00    0.11786E-02
    0.82098E+02    0.32007E+00   -0.97179E-02
    0.84585E+02    0.32459E+00    0.13429E+00
    0.87073E+02    0.33418E+00    0.35885E+00
    0.89561E+02    0.34308E+00    0.61464E+00
    0.92049E+02    0.35693E+00    0.73032E+00
    0.94537E+02    0.36248E+00    0.77831E+00
    0.97024E+02    0.37645E+00    0.87701E+00
    0.99512E+02    0.39093E+00    0.92114E+00
    0.10200E+03    0.40010E+00    0.10000E+01
zone i=     42,T= "1dxhc;t= 0.1500E+03y,z:   1  12"
    0.00000E+00    0.50000E+00    0.00000E+00
    0.24878E+01    0.49796E+00    0.20869E-22
    0.49756E+01    0.49375E+00    0.19409E-21
    0.74634E+01    0.48803E+00    0.11880E-20
    0.99512E+01    0.48400E+00    0.32922E-20
    0.12439E+02    0.47543E+00    0.16812E-19
    0.14927E+02    0.47074E+00    0.86356E-19
    0.17415E+02    0.46387E+00    0.44879E-18
    0.19902E+02    0.45901E+00    0.25794E-17
    0.22390E+02    0.45375E+00    0.14540E-16
    0.24878E+02    0.44850E+00   -0.33842E-17
    0.27366E+02    0.43966E+00    0.45396E-16
    0.29854E+02    0.43085E+00    0.47177E-15
    0.32341E+02    0.42618E+00    0.30748E-14
    0.34829E+02    0.42216E+00    0.18061E-13
    0.37317E+02    0.41842E+00    0.24824E-12
    0.39805E+02    0.41557E+00    0.43403E-12
    0.42293E+02    0.41138E+00    0.11455E-11
    0.44780E+02    0.40854E+00    0.22209E-11
    0.47268E+02    0.40534E+00    0.21857E-11
    0.49756E+02    0.39545E+00    0.13887E-11
    0.52244E+02    0.38237E+00    0.68209E-12
    0.54732E+02    0.37557E+00   -0.24956E-11
    0.57220E+02    0.37021E+00   -0.94803E-11
    0.59707E+02    0.36776E+00   -0.25507E-10
    0.62195E+02    0.36444E+00   -0.92727E-10
    0.64683E+02    0.35938E+00   -0.44407E-09
    0.67171E+02    0.35092E+00   -0.14944E-08
    0.69659E+02    0.34334E+00   -0.86995E-08
    0.72146E+02    0.33795E+00   -0.33490E-07
    0.74634E+02    0.33028E+00   -0.18875E-06
    0.77122E+02    0.32266E+00    0.13404E-08
    0.79610E+02    0.31571E+00    0.52426E-05
    0.82098E+02    0.30523E+00    0.86106E-04
    0.84585E+02    0.29778E+00    0.57535E-03
    0.87073E+02    0.28614E+00    0.18320E-02
    0.89561E+02    0.27121E+00    0.14912E-01
    0.92049E+02    0.25731E+00    0.67657E-01
    0.94537E+02    0.24569E+00    0.20355E+00
    0.97024E+02    0.23538E+00    0.31711E+00
    0.99512E+02    0.20057E+00    0.57314E+00
    0.10200E+03    0.16004E+00    0.10000E+01
zone i=     42,T= "1dxhc;t= 0.1500E+03y,z:   1  22"
    0.00000E+00    0.49758E+00   -0.63789E-17
    0.24878E+01    0.48610E+00   -0.25941E-16
    0.49756E+01    0.47482E+00   -0.78530E-16
    0.74634E+01    0.46255E+00   -0.15733E-15
    0.99512E+01    0.45552E+00   -0.27718E-15
    0.12439E+02    0.45030E+00   -0.60552E-15
    0.14927E+02    0.44586E+00   -0.58595E-15
    0.17415E+02    0.44049E+00    0.92600E-16
    0.19902E+02    0.43740E+00    0.12852E-13
    0.22390E+02    0.43443E+00    0.94436E-13
    0.24878E+02    0.43102E+00    0.45909E-12
    0.27366E+02    0.42818E+00    0.12156E-11
    0.29854E+02    0.42183E+00    0.48584E-11
    0.32341E+02    0.41113E+00    0.12444E-10
    0.34829E+02    0.40121E+00    0.27849E-10
    0.37317E+02    0.38873E+00    0.63693E-10
    0.39805E+02    0.36437E+00    0.16557E-09
    0.42293E+02    0.33647E+00    0.38281E-09
    0.44780E+02    0.32614E+00    0.82346E-09
    0.47268E+02    0.31729E+00    0.16424E-08
    0.49756E+02    0.30677E+00    0.37260E-08
    0.52244E+02    0.29594E+00    0.83353E-08
    0.54732E+02    0.28977E+00    0.17727E-07
    0.57220E+02    0.27654E+00    0.50069E-07
    0.59707E+02    0.26288E+00    0.12036E-06
    0.62195E+02    0.25376E+00    0.24371E-06
    0.64683E+02    0.24601E+00    0.44223E-06
    0.67171E+02    0.23976E+00    0.59046E-06
    0.69659E+02    0.23242E+00    0.69407E-06
    0.72146E+02    0.22510E+00    0.76640E-06
    0.74634E+02    0.21529E+00    0.94781E-06
    0.77122E+02    0.20934E+00    0.10757E-05
    0.79610E+02    0.20069E+00    0.33379E-05
    0.82098E+02    0.18073E+00    0.53717E-05
    0.84585E+02    0.14039E+00    0.10232E-04
    0.87073E+02    0.11881E+00    0.16151E-04
    0.89561E+02    0.88227E-01    0.23430E-04
    0.92049E+02    0.78623E-01    0.12602E-04
    0.94537E+02    0.61013E-01    0.19759E-05
    0.97024E+02    0.42438E-01    0.16748E-04
    0.99512E+02    0.22985E-01    0.55210E-04
    0.10200E+03    0.51100E-02    0.57527E-04
zone i=     42,T= "1dxhc;t= 0.3000E+03y,z:   1   1"
    0.00000E+00    0.50000E+00    0.00000E+00
    0.24878E+01    0.49895E+00    0.14336E-18
    0.49756E+01    0.49703E+00    0.14341E-17
    0.74634E+01    0.49073E+00    0.87820E-17
    0.99512E+01    0.47809E+00    0.34738E-16
    0.12439E+02    0.46900E+00    0.67708E-16
    0.14927E+02    0.46293E+00    0.14865E-15
    0.17415E+02    0.46043E+00    0.38805E-15
    0.19902E+02    0.45806E+00    0.21958E-14
    0.22390E+02    0.45480E+00    0.24961E-14
    0.24878E+02    0.44919E+00   -0.20078E-14
    0.27366E+02    0.44328E+00    0.18923E-13
    0.29854E+02    0.43710E+00    0.25460E-13
    0.32341E+02    0.43161E+00    0.24841E-14
    0.34829E+02    0.42696E+00    0.33781E-14
    0.37317E+02    0.42323E+00    0.60834E-13
    0.39805E+02    0.41876E+00    0.24862E-11
    0.42293E+02    0.41241E+00    0.43032E-10
    0.44780E+02    0.39905E+00    0.35351E-09
    0.47268E+02    0.38755E+00    0.27491E-08
    0.49756E+02    0.37955E+00    0.12720E-07
    0.52244E+02    0.37685E+00    0.42795E-07
    0.54732E+02    0.37258E+00    0.13562E-06
    0.57220E+02    0.37049E+00    0.43832E-06
    0.59707E+02    0.36971E+00    0.91760E-06
    0.62195E+02    0.36540E+00    0.35906E-05
    0.64683E+02    0.35955E+00    0.11570E-04
    0.67171E+02    0.35222E+00    0.43312E-04
    0.69659E+02    0.34547E+00    0.17010E-03
    0.72146E+02    0.33822E+00    0.67886E-03
    0.74634E+02    0.33325E+00    0.24088E-02
    0.77122E+02    0.32963E+00    0.62740E-02
    0.79610E+02    0.32765E+00   -0.20284E-02
    0.82098E+02    0.33619E+00    0.25200E+00
    0.84585E+02    0.34568E+00    0.44618E+00
    0.87073E+02    0.35653E+00    0.63527E+00
    0.89561E+02    0.36410E+00    0.79573E+00
    0.92049E+02    0.37474E+00    0.84485E+00
    0.94537E+02    0.37878E+00    0.86998E+00
    0.97024E+02    0.38828E+00    0.92143E+00
    0.99512E+02    0.39803E+00    0.95486E+00
    0.10200E+03    0.40010E+00    0.10000E+01
zone i=     42,T= "1dxhc;t= 0.3000E+03y,z:   1  12"
    0.00000E+00    0.50000E+00    0.00000E+00
    0.24878E+01    0.49796E+00    0.22759E-19
    0.49756E+01    0.49376E+00    0.17539E-18
    0.74634E+01    0.48804E+00    0.88615E-18
    0.99512E+01    0.48401E+00    0.20678E-17
    0.12439E+02    0.47544E+00    0.85274E-17
    0.14927E+02    0.47075E+00    0.33621E-16
    0.17415E+02    0.46390E+00    0.13584E-15
    0.19902E+02    0.45904E+00    0.58842E-15
    0.22390E+02    0.45378E+00    0.25018E-14
    0.24878E+02    0.44854E+00   -0.85760E-15
    0.27366E+02    0.43970E+00    0.65543E-14
    0.29854E+02    0.43090E+00    0.50655E-13
    0.32341E+02    0.42623E+00    0.25119E-12
    0.34829E+02    0.42222E+00    0.11452E-11
    0.37317E+02    0.41849E+00    0.13316E-10
    0.39805E+02    0.41564E+00    0.20831E-10
    0.42293E+02    0.41146E+00    0.47800E-10
    0.44780E+02    0.40861E+00    0.79583E-10
    0.47268E+02    0.40543E+00    0.69994E-10
    0.49756E+02    0.39556E+00    0.15513E-10
    0.52244E+02    0.38250E+00   -0.63461E-10
    0.54732E+02    0.37571E+00   -0.25620E-09
    0.57220E+02    0.37037E+00   -0.25622E-09
    0.59707E+02    0.36792E+00   -0.90463E-09
    0.62195E+02    0.36461E+00   -0.22417E-08
    0.64683E+02    0.35955E+00   -0.95052E-08
    0.67171E+02    0.35108E+00   -0.24609E-07
    0.69659E+02    0.34342E+00   -0.14004E-06
    0.72146E+02    0.33788E+00   -0.46560E-06
    0.74634E+02    0.32982E+00   -0.22361E-05
    0.77122E+02    0.32143E+00    0.24546E-05
    0.79610E+02    0.31324E+00    0.79240E-04
    0.82098E+02    0.29974E+00    0.74768E-03
    0.84585E+02    0.28989E+00    0.26930E-02
    0.87073E+02    0.27533E+00    0.66672E-02
    0.89561E+02    0.25841E+00    0.24863E-01
    0.92049E+02    0.24409E+00    0.83633E-01
    0.94537E+02    0.23326E+00    0.21927E+00
    0.97024E+02    0.22426E+00    0.33205E+00
    0.99512E+02    0.19453E+00    0.57924E+00
    0.10200E+03    0.16004E+00    0.10000E+01
zone i=     42,T= "1dxhc;t= 0.3000E+03y,z:   1  22"
    0.00000E+00    0.49757E+00   -0.17009E-15
    0.24878E+01    0.48608E+00   -0.27978E-15
    0.49756E+01    0.47479E+00   -0.95764E-16
    0.74634E+01    0.46251E+00    0.14619E-14
    0.99512E+01    0.45547E+00    0.69031E-14
    0.12439E+02    0.45024E+00    0.27757E-13
    0.14927E+02    0.44580E+00    0.72899E-13
    0.17415E+02    0.44042E+00    0.47541E-12
    0.19902E+02    0.43733E+00    0.17679E-11
    0.22390E+02    0.43436E+00    0.66187E-11
    0.24878E+02    0.43095E+00    0.18310E-10
    0.27366E+02    0.42811E+00    0.34174E-10
    0.29854E+02    0.42174E+00    0.96339E-10
    0.32341E+02    0.41104E+00    0.18938E-09
    0.34829E+02    0.40110E+00    0.37157E-09
    0.37317E+02    0.38862E+00    0.73803E-09
    0.39805E+02    0.36423E+00    0.15205E-08
    0.42293E+02    0.33630E+00    0.28445E-08
    0.44780E+02    0.32596E+00    0.53533E-08
    0.47268E+02    0.31710E+00    0.99257E-08
    0.49756E+02    0.30657E+00    0.20543E-07
    0.52244E+02    0.29572E+00    0.40245E-07
    0.54732E+02    0.28955E+00    0.69636E-07
    0.57220E+02    0.27630E+00    0.14877E-06
    0.59707E+02    0.26262E+00    0.27552E-06
    0.62195E+02    0.25349E+00    0.47822E-06
    0.64683E+02    0.24573E+00    0.83402E-06
    0.67171E+02    0.23947E+00    0.12075E-05
    0.69659E+02    0.23212E+00    0.16545E-05
    0.72146E+02    0.22479E+00    0.20341E-05
    0.74634E+02    0.21496E+00    0.28376E-05
    0.77122E+02    0.20901E+00    0.34116E-05
    0.79610E+02    0.20035E+00    0.76983E-05
    0.82098E+02    0.18039E+00    0.11032E-04
    0.84585E+02    0.14007E+00    0.17664E-04
    0.87073E+02    0.11852E+00    0.24999E-04
    0.89561E+02    0.87987E-01    0.34699E-04
    0.92049E+02    0.78403E-01    0.28231E-04
    0.94537E+02    0.60833E-01    0.20107E-04
    0.97024E+02    0.42301E-01    0.57571E-04
    0.99512E+02    0.22905E-01    0.79349E-04
    0.10200E+03    0.50920E-02    0.12680E-03
zone i=     42,T= "1dxhc;t= 0.4500E+03y,z:   1   1"
    0.00000E+00    0.50000E+00    0.00000E+00
    0.24878E+01    0.49895E+00    0.84381E-17
    0.49756E+01    0.49703E+00    0.75703E-16
    0.74634E+01    0.49074E+00    0.38612E-15
    0.99512E+01    0.47812E+00    0.13562E-14
    0.12439E+02    0.46904E+00    0.24834E-14
    0.14927E+02    0.46298E+00    0.52341E-14
    0.17415E+02    0.46048E+00    0.13452E-13
    0.19902E+02    0.45811E+00    0.67394E-13
    0.22390E+02    0.45486E+00    0.10932E-12
    0.24878E+02    0.44926E+00    0.14926E-12
    0.27366E+02    0.44335E+00    0.10488E-11
    0.29854E+02    0.43718E+00    0.21386E-11
    0.32341E+02    0.43171E+00    0.25634E-12
    0.34829E+02    0.42706E+00    0.12372E-12
    0.37317E+02    0.42333E+00    0.34275E-11
    0.39805E+02    0.41888E+00    0.10822E-09
    0.42293E+02    0.41254E+00    0.14557E-08
    0.44780E+02    0.39921E+00    0.96279E-08
    0.47268E+02    0.38774E+00    0.61264E-07
    0.49756E+02    0.37976E+00    0.23842E-06
    0.52244E+02    0.37707E+00    0.71637E-06
    0.54732E+02    0.37281E+00    0.20868E-05
    0.57220E+02    0.37074E+00    0.62401E-05
    0.59707E+02    0.36996E+00    0.12613E-04
    0.62195E+02    0.36570E+00    0.44499E-04
    0.64683E+02    0.35996E+00    0.12846E-03
    0.67171E+02    0.35284E+00    0.41242E-03
    0.69659E+02    0.34642E+00    0.13160E-02
    0.72146E+02    0.33977E+00    0.43328E-02
    0.74634E+02    0.33547E+00    0.13418E-01
    0.77122E+02    0.33381E+00    0.23406E-01
    0.79610E+02    0.33589E+00    0.26868E+00
    0.82098E+02    0.34926E+00    0.50325E+00
    0.84585E+02    0.35851E+00    0.59732E+00
    0.87073E+02    0.36817E+00    0.73383E+00
    0.89561E+02    0.37448E+00    0.84914E+00
    0.92049E+02    0.38305E+00    0.88488E+00
    0.94537E+02    0.38623E+00    0.90399E+00
    0.97024E+02    0.39347E+00    0.93825E+00
    0.99512E+02    0.40107E+00    0.96898E+00
    0.10200E+03    0.40010E+00    0.10000E+01
zone i=     42,T= "1dxhc;t= 0.4500E+03y,z:   1  12"
    0.00000E+00    0.50000E+00    0.00000E+00
    0.24878E+01    0.49796E+00    0.20018E-17
    0.49756E+01    0.49376E+00    0.13591E-16
    0.74634E+01    0.48805E+00    0.59883E-16
    0.99512E+01    0.48403E+00    0.12748E-15
    0.12439E+02    0.47547E+00    0.45756E-15
    0.14927E+02    0.47079E+00    0.14968E-14
    0.17415E+02    0.46394E+00    0.50749E-14
    0.19902E+02    0.45909E+00    0.17994E-13
    0.22390E+02    0.45384E+00    0.62887E-13
    0.24878E+02    0.44860E+00   -0.21974E-13
    0.27366E+02    0.43978E+00    0.15330E-12
    0.29854E+02    0.43099E+00    0.95601E-12
    0.32341E+02    0.42634E+00    0.37673E-11
    0.34829E+02    0.42233E+00    0.14623E-10
    0.37317E+02    0.41860E+00    0.14602E-09
    0.39805E+02    0.41576E+00    0.22306E-09
    0.42293E+02    0.41159E+00    0.49907E-09
    0.44780E+02    0.40875E+00    0.82534E-09
    0.47268E+02    0.40557E+00    0.80101E-09
    0.49756E+02    0.39572E+00    0.40366E-09
    0.52244E+02    0.38270E+00   -0.15029E-09
    0.54732E+02    0.37593E+00   -0.13884E-08
    0.57220E+02    0.37060E+00   -0.25274E-08
    0.59707E+02    0.36816E+00   -0.61716E-08
    0.62195E+02    0.36485E+00   -0.14723E-07
    0.64683E+02    0.35979E+00   -0.54528E-07
    0.67171E+02    0.35127E+00   -0.10075E-06
    0.69659E+02    0.34349E+00   -0.76584E-06
    0.72146E+02    0.33777E+00   -0.21226E-05
    0.74634E+02    0.32921E+00   -0.77465E-05
    0.77122E+02    0.31997E+00    0.22007E-04
    0.79610E+02    0.31068E+00    0.29555E-03
    0.82098E+02    0.29509E+00    0.18247E-02
    0.84585E+02    0.28396E+00    0.46859E-02
    0.87073E+02    0.26836E+00    0.96630E-02
    0.89561E+02    0.25122E+00    0.28705E-01
    0.92049E+02    0.23727E+00    0.91680E-01
    0.94537E+02    0.22710E+00    0.22943E+00
    0.97024E+02    0.21883E+00    0.34141E+00
    0.99512E+02    0.19162E+00    0.58290E+00
    0.10200E+03    0.16004E+00    0.10000E+01
zone i=     42,T= "1dxhc;t= 0.4500E+03y,z:   1  22"
    0.00000E+00    0.49757E+00   -0.39770E-15
    0.24878E+01    0.48607E+00   -0.13672E-14
    0.49756E+01    0.47477E+00    0.18320E-14
    0.74634E+01    0.46248E+00    0.18311E-13
    0.99512E+01    0.45543E+00    0.79344E-13
    0.12439E+02    0.45021E+00    0.25451E-12
    0.14927E+02    0.44575E+00    0.66275E-12
    0.17415E+02    0.44038E+00    0.33696E-11
    0.19902E+02    0.43728E+00    0.91388E-11
    0.22390E+02    0.43431E+00    0.24065E-10
    0.24878E+02    0.43090E+00    0.48135E-10
    0.27366E+02    0.42805E+00    0.75931E-10
    0.29854E+02    0.42168E+00    0.17009E-09
    0.32341E+02    0.41097E+00    0.28493E-09
    0.34829E+02    0.40102E+00    0.56427E-09
    0.37317E+02    0.38853E+00    0.10799E-08
    0.39805E+02    0.36412E+00    0.19531E-08
    0.42293E+02    0.33617E+00    0.33420E-08
    0.44780E+02    0.32582E+00    0.62114E-08
    0.47268E+02    0.31695E+00    0.11978E-07
    0.49756E+02    0.30641E+00    0.26012E-07
    0.52244E+02    0.29555E+00    0.50454E-07
    0.54732E+02    0.28938E+00    0.78607E-07
    0.57220E+02    0.27612E+00    0.14915E-06
    0.59707E+02    0.26242E+00    0.24453E-06
    0.62195E+02    0.25328E+00    0.40677E-06
    0.64683E+02    0.24550E+00    0.73779E-06
    0.67171E+02    0.23924E+00    0.11466E-05
    0.69659E+02    0.23188E+00    0.17148E-05
    0.72146E+02    0.22454E+00    0.22649E-05
    0.74634E+02    0.21470E+00    0.32614E-05
    0.77122E+02    0.20875E+00    0.41072E-05
    0.79610E+02    0.20009E+00    0.80228E-05
    0.82098E+02    0.18013E+00    0.10841E-04
    0.84585E+02    0.13983E+00    0.16508E-04
    0.87073E+02    0.11830E+00    0.22978E-04
    0.89561E+02    0.87811E-01    0.31580E-04
    0.92049E+02    0.78242E-01    0.26546E-04
    0.94537E+02    0.60702E-01    0.20043E-04
    0.97024E+02    0.42205E-01    0.59372E-04
    0.99512E+02    0.22851E-01    0.74298E-04
    0.10200E+03    0.50798E-02    0.12546E-03
zone i=     42,T= "1dxhc;t= 0.6000E+03y,z:   1   1"
    0.00000E+00    0.50000E+00    0.00000E+00
    0.24878E+01    0.49895E+00    0.14235E-15
    0.49756E+01    0.49704E+00    0.11777E-14
    0.74634E+01    0.49075E+00    0.52665E-14
    0.99512E+01    0.47814E+00    0.17476E-13
    0.12439E+02    0.46907E+00    0.32963E-13
    0.14927E+02    0.46302E+00    0.73304E-13
    0.17415E+02    0.46052E+00    0.19701E-12
    0.19902E+02    0.45816E+00    0.89968E-12
    0.22390E+02    0.45491E+00    0.20443E-11
    0.24878E+02    0.44931E+00    0.49204E-11
    0.27366E+02    0.44342E+00    0.20034E-10
    0.29854E+02    0.43726E+00    0.43317E-10
    0.32341E+02    0.43179E+00    0.80021E-11
    0.34829E+02    0.42715E+00    0.16578E-11
    0.37317E+02    0.42343E+00    0.60204E-10
    0.39805E+02    0.41898E+00    0.14954E-08
    0.42293E+02    0.41265E+00    0.15610E-07
    0.44780E+02    0.39936E+00    0.81701E-07
    0.47268E+02    0.38791E+00    0.40609E-06
    0.49756E+02    0.37995E+00    0.12370E-05
    0.52244E+02    0.37727E+00    0.30944E-05
    0.54732E+02    0.37302E+00    0.77685E-05
    0.57220E+02    0.37096E+00    0.20098E-04
    0.59707E+02    0.37019E+00    0.38111E-04
    0.62195E+02    0.36598E+00    0.11177E-03
    0.64683E+02    0.36036E+00    0.27705E-03
    0.67171E+02    0.35348E+00    0.70609E-03
    0.69659E+02    0.34747E+00    0.14632E-02
    0.72146E+02    0.34138E+00    0.22192E-02
    0.74634E+02    0.33864E+00   -0.11767E-01
    0.77122E+02    0.33969E+00    0.20534E+00
    0.79610E+02    0.34500E+00    0.56443E+00
    0.82098E+02    0.35885E+00    0.69943E+00
    0.84585E+02    0.36710E+00    0.70762E+00
    0.87073E+02    0.37548E+00    0.79113E+00
    0.89561E+02    0.38082E+00    0.87947E+00
    0.92049E+02    0.38796E+00    0.90695E+00
    0.94537E+02    0.39060E+00    0.92265E+00
    0.97024E+02    0.39647E+00    0.94719E+00
    0.99512E+02    0.40280E+00    0.97730E+00
    0.10200E+03    0.40010E+00    0.10000E+01
zone i=     42,T= "1dxhc;t= 0.6000E+03y,z:   1  12"
    0.00000E+00    0.50000E+00    0.00000E+00
    0.24878E+01    0.49797E+00    0.47969E-16
    0.49756E+01    0.49377E+00    0.29448E-15
    0.74634E+01    0.48807E+00    0.11593E-14
    0.99512E+01    0.48405E+00    0.23527E-14
    0.12439E+02    0.47550E+00    0.76674E-14
    0.14927E+02    0.47082E+00    0.21771E-13
    0.17415E+02    0.46398E+00    0.64591E-13
    0.19902E+02    0.45913E+00    0.19655E-12
    0.22390E+02    0.45389E+00    0.59608E-12
    0.24878E+02    0.44866E+00   -0.17941E-12
    0.27366E+02    0.43985E+00    0.13927E-11
    0.29854E+02    0.43107E+00    0.74135E-11
    0.32341E+02    0.42643E+00    0.24259E-10
    0.34829E+02    0.42243E+00    0.86748E-10
    0.37317E+02    0.41870E+00    0.74766E-09
    0.39805E+02    0.41587E+00    0.11509E-08
    0.42293E+02    0.41170E+00    0.26045E-08
    0.44780E+02    0.40887E+00    0.44069E-08
    0.47268E+02    0.40570E+00    0.45840E-08
    0.49756E+02    0.39587E+00    0.33275E-08
    0.52244E+02    0.38287E+00    0.18257E-08
    0.54732E+02    0.37612E+00   -0.22721E-08
    0.57220E+02    0.37081E+00   -0.13496E-07
    0.59707E+02    0.36837E+00   -0.21346E-07
    0.62195E+02    0.36507E+00   -0.56777E-07
    0.64683E+02    0.36000E+00   -0.17960E-06
    0.67171E+02    0.35142E+00   -0.28406E-06
    0.69659E+02    0.34350E+00   -0.26469E-05
    0.72146E+02    0.33756E+00   -0.47201E-05
    0.74634E+02    0.32850E+00   -0.10941E-04
    0.77122E+02    0.31849E+00    0.74096E-04
    0.79610E+02    0.30834E+00    0.60434E-03
    0.82098E+02    0.29142E+00    0.28704E-02
    0.84585E+02    0.27963E+00    0.60932E-02
    0.87073E+02    0.26365E+00    0.11517E-01
    0.89561E+02    0.24663E+00    0.31339E-01
    0.92049E+02    0.23305E+00    0.97961E-01
    0.94537E+02    0.22333E+00    0.23770E+00
    0.97024E+02    0.21552E+00    0.34906E+00
    0.99512E+02    0.18985E+00    0.58638E+00
    0.10200E+03    0.16004E+00    0.10000E+01
zone i=     42,T= "1dxhc;t= 0.6000E+03y,z:   1  22"
    0.00000E+00    0.49757E+00   -0.29318E-13
    0.24878E+01    0.48606E+00   -0.79625E-13
    0.49756E+01    0.47476E+00   -0.17577E-12
    0.74634E+01    0.46246E+00   -0.26066E-12
    0.99512E+01    0.45540E+00   -0.29938E-12
    0.12439E+02    0.45017E+00   -0.34962E-12
    0.14927E+02    0.44572E+00    0.54943E-12
    0.17415E+02    0.44034E+00    0.33991E-11
    0.19902E+02    0.43724E+00    0.61170E-11
    0.22390E+02    0.43427E+00    0.34624E-11
    0.24878E+02    0.43086E+00   -0.10653E-10
    0.27366E+02    0.42801E+00   -0.21731E-10
    0.29854E+02    0.42163E+00   -0.73658E-10
    0.32341E+02    0.41091E+00   -0.15078E-09
    0.34829E+02    0.40096E+00   -0.11157E-09
    0.37317E+02    0.38846E+00   -0.65135E-10
    0.39805E+02    0.36403E+00   -0.18263E-09
    0.42293E+02    0.33607E+00   -0.11618E-09
    0.44780E+02    0.32570E+00    0.88163E-09
    0.47268E+02    0.31684E+00    0.42610E-08
    0.49756E+02    0.30628E+00    0.14666E-07
    0.52244E+02    0.29542E+00    0.33020E-07
    0.54732E+02    0.28924E+00    0.48117E-07
    0.57220E+02    0.27597E+00    0.91421E-07
    0.59707E+02    0.26226E+00    0.14572E-06
    0.62195E+02    0.25311E+00    0.25904E-06
    0.64683E+02    0.24533E+00    0.53604E-06
    0.67171E+02    0.23906E+00    0.90490E-06
    0.69659E+02    0.23169E+00    0.14227E-05
    0.72146E+02    0.22434E+00    0.19377E-05
    0.74634E+02    0.21450E+00    0.28640E-05
    0.77122E+02    0.20853E+00    0.36548E-05
    0.79610E+02    0.19987E+00    0.70179E-05
    0.82098E+02    0.17992E+00    0.93800E-05
    0.84585E+02    0.13965E+00    0.14278E-04
    0.87073E+02    0.11813E+00    0.20100E-04
    0.89561E+02    0.87678E-01    0.27758E-04
    0.92049E+02    0.78121E-01    0.23295E-04
    0.94537E+02    0.60605E-01    0.17763E-04
    0.97024E+02    0.42135E-01    0.56250E-04
    0.99512E+02    0.22812E-01    0.68083E-04
    0.10200E+03    0.50710E-02    0.11704E-03
zone i=     42,T= "1dxhc;t= 0.7500E+03y,z:   1   1"
    0.00000E+00    0.50000E+00    0.00000E+00
    0.24878E+01    0.49895E+00    0.11504E-14
    0.49756E+01    0.49704E+00    0.90004E-14
    0.74634E+01    0.49076E+00    0.37663E-13
    0.99512E+01    0.47816E+00    0.12619E-12
    0.12439E+02    0.46910E+00    0.26306E-12
    0.14927E+02    0.46305E+00    0.63405E-12
    0.17415E+02    0.46056E+00    0.17393E-11
    0.19902E+02    0.45819E+00    0.72965E-11
    0.22390E+02    0.45495E+00    0.18893E-10
    0.24878E+02    0.44936E+00    0.49094E-10
    0.27366E+02    0.44347E+00    0.16353E-09
    0.29854E+02    0.43731E+00    0.34145E-09
    0.32341E+02    0.43185E+00    0.96530E-10
    0.34829E+02    0.42721E+00    0.13027E-10
    0.37317E+02    0.42350E+00    0.44225E-09
    0.39805E+02    0.41906E+00    0.83385E-08
    0.42293E+02    0.41274E+00    0.64522E-07
    0.44780E+02    0.39946E+00    0.26154E-06
    0.47268E+02    0.38804E+00    0.10218E-05
    0.49756E+02    0.38009E+00    0.25732E-05
    0.52244E+02    0.37742E+00    0.56973E-05
    0.54732E+02    0.37319E+00    0.13688E-04
    0.57220E+02    0.37113E+00    0.35083E-04
    0.59707E+02    0.37037E+00    0.71734E-04
    0.62195E+02    0.36622E+00    0.22301E-03
    0.64683E+02    0.36072E+00    0.64785E-03
    0.67171E+02    0.35411E+00    0.21164E-02
    0.69659E+02    0.34862E+00    0.69619E-02
    0.72146E+02    0.34345E+00    0.26288E-01
    0.74634E+02    0.34239E+00   -0.23936E-01
    0.77122E+02    0.34546E+00    0.26275E+00
    0.79610E+02    0.35230E+00    0.65504E+00
    0.82098E+02    0.36571E+00    0.78282E+00
    0.84585E+02    0.37316E+00    0.77783E+00
    0.87073E+02    0.38052E+00    0.83272E+00
    0.89561E+02    0.38512E+00    0.90032E+00
    0.92049E+02    0.39123E+00    0.92198E+00
    0.94537E+02    0.39348E+00    0.93495E+00
    0.97024E+02    0.39843E+00    0.95297E+00
    0.99512E+02    0.40392E+00    0.98289E+00
    0.10200E+03    0.40010E+00    0.10000E+01
zone i=     42,T= "1dxhc;t= 0.7500E+03y,z:   1  12"
    0.00000E+00    0.50000E+00    0.00000E+00
    0.24878E+01    0.49797E+00    0.51495E-15
    0.49756E+01    0.49378E+00    0.29064E-14
    0.74634E+01    0.48808E+00    0.10412E-13
    0.99512E+01    0.48406E+00    0.20699E-13
    0.12439E+02    0.47552E+00    0.63069E-13
    0.14927E+02    0.47085E+00    0.16128E-12
    0.17415E+02    0.46401E+00    0.43263E-12
    0.19902E+02    0.45917E+00    0.11733E-11
    0.22390E+02    0.45393E+00    0.32099E-11
    0.24878E+02    0.44871E+00   -0.74008E-12
    0.27366E+02    0.43991E+00    0.72299E-11
    0.29854E+02    0.43114E+00    0.34164E-10
    0.32341E+02    0.42649E+00    0.96865E-10
    0.34829E+02    0.42250E+00    0.33163E-09
    0.37317E+02    0.41878E+00    0.24838E-08
    0.39805E+02    0.41595E+00    0.38550E-08
    0.42293E+02    0.41179E+00    0.88221E-08
    0.44780E+02    0.40896E+00    0.15185E-07
    0.47268E+02    0.40579E+00    0.16668E-07
    0.49756E+02    0.39598E+00    0.14139E-07
    0.52244E+02    0.38301E+00    0.12453E-07
    0.54732E+02    0.37626E+00    0.41532E-08
    0.57220E+02    0.37096E+00   -0.42559E-07
    0.59707E+02    0.36853E+00   -0.48979E-07
    0.62195E+02    0.36522E+00   -0.16354E-06
    0.64683E+02    0.36013E+00   -0.40720E-06
    0.67171E+02    0.35148E+00   -0.77551E-06
    0.69659E+02    0.34339E+00   -0.57047E-05
    0.72146E+02    0.33724E+00   -0.59066E-05
    0.74634E+02    0.32770E+00   -0.45826E-05
    0.77122E+02    0.31704E+00    0.15413E-03
    0.79610E+02    0.30626E+00    0.92543E-03
    0.82098E+02    0.28855E+00    0.37498E-02
    0.84585E+02    0.27644E+00    0.71416E-02
    0.87073E+02    0.26037E+00    0.12884E-01
    0.89561E+02    0.24355E+00    0.33476E-01
    0.92049E+02    0.23027E+00    0.10283E+00
    0.94537E+02    0.22087E+00    0.24401E+00
    0.97024E+02    0.21336E+00    0.35504E+00
    0.99512E+02    0.18869E+00    0.58936E+00
    0.10200E+03    0.16004E+00    0.10000E+01
zone i=     42,T= "1dxhc;t= 0.7500E+03y,z:   1  22"
    0.00000E+00    0.49757E+00   -0.24888E-12
    0.24878E+01    0.48606E+00   -0.52625E-12
    0.49756E+01    0.47474E+00   -0.11892E-11
    0.74634E+01    0.46244E+00   -0.19645E-11
    0.99512E+01    0.45538E+00   -0.31603E-11
    0.12439E+02    0.45015E+00   -0.55443E-11
    0.14927E+02    0.44569E+00   -0.57817E-11
    0.17415E+02    0.44031E+00   -0.16271E-10
    0.19902E+02    0.43721E+00   -0.37367E-10
    0.22390E+02    0.43424E+00   -0.10558E-09
    0.24878E+02    0.43082E+00   -0.21152E-09
    0.27366E+02    0.42797E+00   -0.30690E-09
    0.29854E+02    0.42160E+00   -0.63724E-09
    0.32341E+02    0.41087E+00   -0.10266E-08
    0.34829E+02    0.40091E+00   -0.14411E-08
    0.37317E+02    0.38840E+00   -0.22043E-08
    0.39805E+02    0.36396E+00   -0.37140E-08
    0.42293E+02    0.33598E+00   -0.53448E-08
    0.44780E+02    0.32562E+00   -0.68239E-08
    0.47268E+02    0.31674E+00   -0.69062E-08
    0.49756E+02    0.30618E+00   -0.23818E-08
    0.52244E+02    0.29531E+00    0.71412E-08
    0.54732E+02    0.28913E+00    0.88999E-08
    0.57220E+02    0.27585E+00    0.28726E-07
    0.59707E+02    0.26213E+00    0.54863E-07
    0.62195E+02    0.25297E+00    0.13637E-06
    0.64683E+02    0.24518E+00    0.37566E-06
    0.67171E+02    0.23891E+00    0.70665E-06
    0.69659E+02    0.23154E+00    0.11543E-05
    0.72146E+02    0.22418E+00    0.15881E-05
    0.74634E+02    0.21433E+00    0.24109E-05
    0.77122E+02    0.20836E+00    0.30570E-05
    0.79610E+02    0.19970E+00    0.60972E-05
    0.82098E+02    0.17975E+00    0.82239E-05
    0.84585E+02    0.13950E+00    0.12656E-04
    0.87073E+02    0.11800E+00    0.18075E-04
    0.89561E+02    0.87576E-01    0.25103E-04
    0.92049E+02    0.78029E-01    0.21024E-04
    0.94537E+02    0.60531E-01    0.16144E-04
    0.97024E+02    0.42082E-01    0.53859E-04
    0.99512E+02    0.22783E-01    0.63632E-04
    0.10200E+03    0.50645E-02    0.11065E-03
zone i=     42,T= "1dxhc;t= 0.9000E+03y,z:   1   1"
    0.00000E+00    0.50000E+00    0.00000E+00
    0.24878E+01    0.49895E+00    0.59774E-14
    0.49756E+01    0.49704E+00    0.44870E-13