          Title="3D head and conc at t=   0.2500E+04 days"
          variables="x","y","z","head","conc"
          zone i=      22, j=      42, k=      42, T="3D"
  0.00000000E+00  0.00000000E+00  0.00000000E+00  0.50000000E+00  0.00000000E+00
  0.00000000E+00  0.00000000E+00  0.97607556E+00  0.50000000E+00  0.00000000E+00
  0.00000000E+00  0.00000000E+00  0.19521511E+01  0.50000000E+00  0.00000000E+00
  0.00000000E+00  0.00000000E+00  0.29282267E+01  0.50000000E+00  0.00000000E+00
  0.00000000E+00  0.00000000E+00  0.39043022E+01  0.50000000E+00  0.00000000E+00
  0.00000000E+00  0.00000000E+00  0.48803778E+01  0.50000000E+00  0.00000000E+00
  0.00000000E+00  0.00000000E+00  0.58564534E+01  0.50000000E+00  0.00000000E+00
  0.00000000E+00  0.00000000E+00  0.68325289E+01  0.50000000E+00  0.00000000E+00
  0.00000000E+00  0.00000000E+00  0.78086045E+01  0.50000000E+00  0.00000000E+00
  0.00000000E+00  0.00000000E+00  0.87846800E+01  0.50000000E+00  0.00000000E+00
  0.00000000E+00  0.00000000E+00  0.97607556E+01  0.50000000E+00  0.00000000E+00
  0.00000000E+00  0.00000000E+00  0.10736831E+02  0.50000000E+00  0.00000000E+00
  0.00000000E+00  0.00000000E+00  0.11712907E+02  0.50000000E+00  0.00000000E+00
  0.00000000E+00  0.00000000E+00  0.12688982E+02  0.50000000E+00  0.00000000E+00
  0.00000000E+00  0.00000000E+00  0.13665058E+02  0.50000000E+00  0.00000000E+00
  0.00000000E+00  0.00000000E+00  0.14641133E+02  0.50000000E+00  0.00000000E+00
  0.00000000E+00  0.00000000E+00  0.15617209E+02  0.50000000E+00  0.00000000E+00
  0.00000000E+00  0.00000000E+00  0.16593285E+02  0.50000000E+00  0.00000000E+00
  0.00000000E+00  0.00000000E+00  0.17569360E+02  0.50000000E+00  0.00000000E+00
  0.00000000E+00  0.00000000E+00  0.18545436E+02  0.50000000E+00  0.00000000E+00
  0.00000000E+00  0.00000000E+00  0.19521511E+02  0.50000000E+00  0.00000000E+00
  0.00000000E+00  0.00000000E+00  0.20497587E+02  0.49756177E+00 -0.35748140E-10
  0.00000000E+00  0.24878049E+01  0.00000000E+00  0.50000000E+00  0.00000000E+00
  0.00000000E+00  0.24878049E+01  0.97608119E+00  0.50000000E+00  0.00000000E+00
  0.00000000E+00  0.24878049E+01  0.19521624E+01  0.50000000E+00  0.00000000E+00
  0.00000000E+00  0.24878049E+01  0.29282436E+01  0.50000000E+00  0.00000000E+00
  0.00000000E+00  0.24878049E+01  0.39043248E+01  0.50000000E+00  0.00000000E+00
  0.00000000E+00  0.24878049E+01  0.48804060E+01  0.50000000E+00  0.00000000E+00
  0.00000000E+00  0.24878049E+01  0.58564871E+01  0.50000000E+00  0.00000000E+00
  0.00000000E+00  0.24878049E+01  0.68325683E+01  0.50000000E+00  0.00000000E+00
  0.00000000E+00  0.24878049E+01  0.78086495E+01  0.50000000E+00  0.00000000E+00
  0.00000000E+00  0.24878049E+01  0.87847307E+01  0.50000000E+00  0.00000000E+00
  0.00000000E+00  0.24878049E+01  0.97608119E+01  0.50000000E+00  0.00000000E+00
  0.00000000E+00  0.24878049E+01  0.10736893E+02  0.50000000E+00  0.00000000E+00
  0.00000000E+00  0.24878049E+01  0.11712974E+02  0.50000000E+00  0.00000000E+00
  0.00000000E+00  0.24878049E+01  0.12689055E+02  0.50000000E+00  0.00000000E+00
  0.00000000E+00  0.24878049E+01  0.13665137E+02  0.50000000E+00  0.00000000E+00
  0.00000000E+00  0.24878049E+01  0.14641218E+02  0.50000000E+00  0.00000000E+00
  0.00000000E+00  0.24878049E+01  0.15617299E+02  0.50000000E+00  0.00000000E+00
  0.00000000E+00  0.24878049E+01  0.16593380E+02  0.50000000E+00  0.00000000E+00
  0.00000000E+00  0.24878049E+01  0.17569461E+02  0.50000000E+00  0.00000000E+00
  0.00000000E+00  0.24878049E+01  0.18545543E+02  0.50000000E+00  0.00000000E+00
  0.00000000E+00  0.24878049E+01  0.19521624E+02  0.50000000E+00  0.00000000E+00
  0.00000000E+00  0.24878049E+01  0.20497705E+02  0.49768120E+00 -0.38426256E-10
  0.00000000E+00  0.49756098E+01  0.00000000E+00  0.50000000E+00  0.00000000E+00
  0.00000000E+00  0.49756098E+01  0.97608317E+00  0.50000000E+00  0.00000000E+00
  0.00000000E+00  0.49756098E+01  0.19521663E+01  0.50000000E+00  0.00000000E+00
  0.00000000E+00  0.49756098E+01  0.29282495E+01  0.50000000E+00  0.00000000E+00
  0.00000000E+00  0.49756098E+01  0.39043327E+01  0.50000000E+00  0.00000000E+00
  0.00000000E+00  0.49756098E+01  0.48804159E+01  0.50000000E+00  0.00000000E+00
  0.00000000E+00  0.49756098E+01  0.58564990E+01  0.50000000E+00  0.00000000E+00
  0.00000000E+00  0.49756098E+01  0.68325822E+01  0.50000000E+00  0.00000000E+00
  0.00000000E+00  0.49756098E+01  0.78086654E+01  0.50000000E+00  0.00000000E+00
  0.00000000E+00  0.49756098E+01  0.87847486E+01  0.50000000E+00  0.00000000E+00
  0.00000000E+00  0.49756098E+01  0.97608317E+01  0.50000000E+00  0.00000000E+00
  0.00000000E+00  0.49756098E+01  0.10736915E+02  0.50000000E+00  0.00000000E+00
  0.00000000E+00  0.49756098E+01  0.11712998E+02  0.50000000E+00  0.00000000E+00
  0.00000000E+00  0.49756098E+01  0.12689081E+02  0.50000000E+00  0.00000000E+00
  0.00000000E+00  0.49756098E+01  0.13665164E+02  0.50000000E+00  0.00000000E+00
  0.00000000E+00  0.49756098E+01  0.14641248E+02  0.50000000E+00  0.00000000E+00
  0.00000000E+00  0.49756098E+01  0.15617331E+02  0.50000000E+00  0.00000000E+00
  0.00000000E+00  0.49756098E+01  0.16593414E+02  0.50000000E+00  0.00000000E+00
  0.00000000E+00  0.49756098E+01  0.17569497E+02  0.50000000E+00  0.00000000E+00
  0.00000000E+00  0.49756098E+01  0.18545580E+02  0.50000000E+00  0.00000000E+00
  0.00000000E+00  0.49756098E+01  0.19521663E+02  0.50000000E+00  0.00000000E+00
  0.00000000E+00  0.49756098E+01  0.20497747E+02  0.49772500E+00 -0.36564681E-10
  0.00000000E+00  0.74634146E+01  0.00000000E+00  0.50000000E+00  0.00000000E+00
  0.00000000E+00  0.74634146E+01  0.97609104E+00  0.50000000E+00  0.00000000E+00
  0.00000000E+00  0.74634146E+01  0.19521821E+01  0.50000000E+00  0.00000000E+00
  0.00000000E+00  0.74634146E+01  0.29282731E+01  0.50000000E+00  0.00000000E+00
  0.00000000E+00  0.74634146E+01  0.39043642E+01  0.50000000E+00  0.00000000E+00
  0.00000000E+00  0.74634146E+01  0.48804552E+01  0.50000000E+00  0.00000000E+00
  0.00000000E+00  0.74634146E+01  0.58565462E+01  0.50000000E+00  0.00000000E+00
  0.00000000E+00  0.74634146E+01  0.68326373E+01  0.50000000E+00  0.00000000E+00
  0.00000000E+00  0.74634146E+01  0.78087283E+01  0.50000000E+00  0.00000000E+00
  0.00000000E+00  0.74634146E+01  0.87848193E+01  0.50000000E+00  0.00000000E+00
  0.00000000E+00  0.74634146E+01  0.97609104E+01  0.50000000E+00  0.00000000E+00
  0.00000000E+00  0.74634146E+01  0.10737001E+02  0.50000000E+00  0.00000000E+00
  0.00000000E+00  0.74634146E+01  0.11713092E+02  0.50000000E+00  0.00000000E+00
  0.00000000E+00  0.74634146E+01  0.12689183E+02  0.50000000E+00  0.00000000E+00
  0.00000000E+00  0.74634146E+01  0.13665275E+02  0.50000000E+00  0.00000000E+00
  0.00000000E+00  0.74634146E+01  0.14641366E+02  0.50000000E+00  0.00000000E+00
  0.00000000E+00  0.74634146E+01  0.15617457E+02  0.50000000E+00  0.00000000E+00
  0.00000000E+00  0.74634146E+01  0.16593548E+02  0.50000000E+00  0.00000000E+00
  0.00000000E+00  0.74634146E+01  0.17569639E+02  0.50000000E+00  0.00000000E+00
  0.00000000E+00  0.74634146E+01  0.18545730E+02  0.50000000E+00  0.00000000E+00
  0.00000000E+00  0.74634146E+01  0.19521821E+02  0.50000000E+00  0.00000000E+00
  0.00000000E+00  0.74634146E+01  0.20497912E+02  0.49789239E+00 -0.31954774E-10
  0.00000000E+00  0.99512195E+01  0.00000000E+00  0.50000000E+00  0.00000000E+00
  0.00000000E+00  0.99512195E+01  0.97607059E+00  0.50000000E+00  0.00000000E+00
  0.00000000E+00  0.99512195E+01  0.19521412E+01  0.50000000E+00  0.00000000E+00
  0.00000000E+00  0.99512195E+01  0.29282118E+01  0.50000000E+00  0.00000000E+00
  0.00000000E+00  0.99512195E+01  0.39042824E+01  0.50000000E+00  0.00000000E+00
  0.00000000E+00  0.99512195E+01  0.48803530E+01  0.50000000E+00  0.00000000E+00
  0.00000000E+00  0.99512195E+01  0.58564235E+01  0.50000000E+00  0.00000000E+00
  0.00000000E+00  0.99512195E+01  0.68324941E+01  0.50000000E+00  0.00000000E+00
  0.00000000E+00  0.99512195E+01  0.78085647E+01  0.50000000E+00  0.00000000E+00
  0.00000000E+00  0.99512195E+01  0.87846353E+01  0.50000000E+00  0.00000000E+00
  0.00000000E+00  0.99512195E+01  0.97607059E+01  0.50000000E+00  0.00000000E+00
  0.00000000E+00  0.99512195E+01  0.10736776E+02  0.50000000E+00  0.00000000E+00
  0.00000000E+00  0.99512195E+01  0.11712847E+02  0.50000000E+00  0.00000000E+00
  0.00000000E+00  0.99512195E+01  0.12688918E+02  0.50000000E+00  0.00000000E+00
  0.00000000E+00  0.99512195E+01  0.13664988E+02  0.50000000E+00  0.00000000E+00
  0.00000000E+00  0.99512195E+01  0.14641059E+02  0.50000000E+00  0.00000000E+00
  0.00000000E+00  0.99512195E+01  0.15617129E+02  0.50000000E+00  0.00000000E+00
  0.00000000E+00  0.99512195E+01  0.16593200E+02  0.50000000E+00  0.00000000E+00
  0.00000000E+00  0.99512195E+01  0.17569271E+02  0.50000000E+00  0.00000000E+00
  0.00000000E+00  0.99512195E+01  0.18545341E+02  0.50000000E+00  0.00000000E+00
  0.00000000E+00  0.99512195E+01  0.19521412E+02  0.50000000E+00  0.00000000E+00
  0.00000000E+00  0.99512195E+01  0.20497482E+02  0.49746013E+00 -0.23803125E-10
  0.00000000E+00  0.12439024E+02  0.00000000E+00  0.50000000E+00  0.00000000E+00
  0.00000000E+00  0.12439024E+02  0.97605054E+00  0.50000000E+00  0.00000000E+00
  0.00000000E+00  0.12439024E+02  0.19521011E+01  0.50000000E+00  0.00000000E+00
  0.00000000E+00  0.12439024E+02  0.29281516E+01  0.50000000E+00  0.00000000E+00
  0.00000000E+00  0.12439024E+02  0.39042022E+01  0.50000000E+00  0.00000000E+00
  0.00000000E+00  0.12439024E+02  0.48802527E+01  0.50000000E+00  0.00000000E+00
  0.00000000E+00  0.12439024E+02  0.58563033E+01  0.50000000E+00  0.00000000E+00
  0.00000000E+00  0.12439024E+02  0.68323538E+01  0.50000000E+00  0.00000000E+00
  0.00000000E+00  0.12439024E+02  0.78084044E+01  0.50000000E+00  0.00000000E+00
  0.00000000E+00  0.12439024E+02  0.87844549E+01  0.50000000E+00  0.00000000E+00
  0.00000000E+00  0.12439024E+02  0.97605054E+01  0.50000000E+00  0.00000000E+00
  0.00000000E+00  0.12439024E+02  0.10736556E+02  0.50000000E+00  0.00000000E+00
  0.00000000E+00  0.12439024E+02  0.11712607E+02  0.50000000E+00  0.00000000E+00
  0.00000000E+00  0.12439024E+02  0.12688657E+02  0.50000000E+00  0.00000000E+00
  0.00000000E+00  0.12439024E+02  0.13664708E+02  0.50000000E+00  0.00000000E+00
  0.00000000E+00  0.12439024E+02  0.14640758E+02  0.50000000E+00  0.00000000E+00
  0.00000000E+00  0.12439024E+02  0.15616809E+02  0.50000000E+00  0.00000000E+00
  0.00000000E+00  0.12439024E+02  0.16592859E+02  0.50000000E+00  0.00000000E+00
  0.00000000E+00  0.12439024E+02  0.17568910E+02  0.50000000E+00  0.00000000E+00
  0.00000000E+00  0.12439024E+02  0.18544960E+02  0.50000000E+00  0.00000000E+00
  0.00000000E+00  0.12439024E+02  0.19521011E+02  0.50000000E+00  0.00000000E+00
  0.00000000E+00  0.12439024E+02  0.20497061E+02  0.49703620E+00 -0.24192322E-10
  0.00000000E+00  0.14926829E+02  0.00000000E+00  0.50000000E+00  0.00000000E+00
  0.00000000E+00  0.14926829E+02  0.97604213E+00  0.50000000E+00  0.00000000E+00
  0.00000000E+00  0.14926829E+02  0.19520843E+01  0.50000000E+00  0.00000000E+00
  0.00000000E+00  0.14926829E+02  0.29281264E+01  0.50000000E+00  0.00000000E+00
  0.00000000E+00  0.14926829E+02  0.39041685E+01  0.50000000E+00  0.00000000E+00
  0.00000000E+00  0.14926829E+02  0.48802106E+01  0.50000000E+00  0.00000000E+00
  0.00000000E+00  0.14926829E+02  0.58562528E+01  0.50000000E+00  0.00000000E+00
  0.00000000E+00  0.14926829E+02  0.68322949E+01  0.50000000E+00  0.00000000E+00
  0.00000000E+00  0.14926829E+02  0.78083370E+01  0.50000000E+00  0.00000000E+00
  0.00000000E+00  0.14926829E+02  0.87843792E+01  0.50000000E+00  0.00000000E+00
  0.00000000E+00  0.14926829E+02  0.97604213E+01  0.50000000E+00  0.00000000E+00
  0.00000000E+00  0.14926829E+02  0.10736463E+02  0.50000000E+00  0.00000000E+00
  0.00000000E+00  0.14926829E+02  0.11712506E+02  0.50000000E+00  0.00000000E+00
  0.00000000E+00  0.14926829E+02  0.12688548E+02  0.50000000E+00  0.00000000E+00
  0.00000000E+00  0.14926829E+02  0.13664590E+02  0.50000000E+00  0.00000000E+00
  0.00000000E+00  0.14926829E+02  0.14640632E+02  0.50000000E+00  0.00000000E+00
  0.00000000E+00  0.14926829E+02  0.15616674E+02  0.50000000E+00  0.00000000E+00
  0.00000000E+00  0.14926829E+02  0.16592716E+02  0.50000000E+00  0.00000000E+00
  0.00000000E+00  0.14926829E+02  0.17568758E+02  0.50000000E+00  0.00000000E+00
  0.00000000E+00  0.14926829E+02  0.18544800E+02  0.50000000E+00  0.00000000E+00
  0.00000000E+00  0.14926829E+02  0.19520843E+02  0.50000000E+00  0.00000000E+00
  0.00000000E+00  0.14926829E+02  0.20496885E+02  0.49685799E+00 -0.29102102E-10
  0.00000000E+00  0.17414634E+02  0.00000000E+00  0.50000000E+00  0.00000000E+00
  0.00000000E+00  0.17414634E+02  0.97603682E+00  0.50000000E+00  0.00000000E+00
  0.00000000E+00  0.17414634E+02  0.19520736E+01  0.50000000E+00  0.00000000E+00
  0.00000000E+00  0.17414634E+02  0.29281105E+01  0.50000000E+00  0.00000000E+00
  0.00000000E+00  0.17414634E+02  0.39041473E+01  0.50000000E+00  0.00000000E+00
  0.00000000E+00  0.17414634E+02  0.48801841E+01  0.50000000E+00  0.00000000E+00
  0.00000000E+00  0.17414634E+02  0.58562209E+01  0.50000000E+00  0.00000000E+00
  0.00000000E+00  0.17414634E+02  0.68322577E+01  0.50000000E+00  0.00000000E+00
  0.00000000E+00  0.17414634E+02  0.78082946E+01  0.50000000E+00  0.00000000E+00
  0.00000000E+00  0.17414634E+02  0.87843314E+01  0.50000000E+00  0.00000000E+00
  0.00000000E+00  0.17414634E+02  0.97603682E+01  0.50000000E+00  0.00000000E+00
  0.00000000E+00  0.17414634E+02  0.10736405E+02  0.50000000E+00  0.00000000E+00
  0.00000000E+00  0.17414634E+02  0.11712442E+02  0.50000000E+00  0.00000000E+00
  0.00000000E+00  0.17414634E+02  0.12688479E+02  0.50000000E+00  0.00000000E+00
  0.00000000E+00  0.17414634E+02  0.13664515E+02  0.50000000E+00  0.00000000E+00
  0.00000000E+00  0.17414634E+02  0.14640552E+02  0.50000000E+00  0.00000000E+00
  0.00000000E+00  0.17414634E+02  0.15616589E+02  0.50000000E+00  0.00000000E+00
  0.00000000E+00  0.17414634E+02  0.16592626E+02  0.50000000E+00  0.00000000E+00
  0.00000000E+00  0.17414634E+02  0.17568663E+02  0.50000000E+00  0.00000000E+00
  0.00000000E+00  0.17414634E+02  0.18544700E+02  0.50000000E+00  0.00000000E+00
  0.00000000E+00  0.17414634E+02  0.19520736E+02  0.50000000E+00  0.00000000E+00
  0.00000000E+00  0.17414634E+02  0.20496773E+02  0.49674512E+00 -0.49989833E-10
  0.00000000E+00  0.19902439E+02  0.00000000E+00  0.50000000E+00  0.00000000E+00
  0.00000000E+00  0.19902439E+02  0.97604254E+00  0.50000000E+00  0.00000000E+00
  0.00000000E+00  0.19902439E+02  0.19520851E+01  0.50000000E+00  0.00000000E+00
  0.00000000E+00  0.19902439E+02  0.29281276E+01  0.50000000E+00  0.00000000E+00
  0.00000000E+00  0.19902439E+02  0.39041702E+01  0.50000000E+00  0.00000000E+00
  0.00000000E+00  0.19902439E+02  0.48802127E+01  0.50000000E+00  0.00000000E+00
  0.00000000E+00  0.19902439E+02  0.58562552E+01  0.50000000E+00  0.00000000E+00
  0.00000000E+00  0.19902439E+02  0.68322978E+01  0.50000000E+00  0.00000000E+00
  0.00000000E+00  0.19902439E+02  0.78083403E+01  0.50000000E+00  0.00000000E+00
  0.00000000E+00  0.19902439E+02  0.87843829E+01  0.50000000E+00  0.00000000E+00
  0.00000000E+00  0.19902439E+02  0.97604254E+01  0.50000000E+00  0.00000000E+00
  0.00000000E+00  0.19902439E+02  0.10736468E+02  0.50000000E+00  0.00000000E+00
  0.00000000E+00  0.19902439E+02  0.11712510E+02  0.50000000E+00  0.00000000E+00
  0.00000000E+00  0.19902439E+02  0.12688553E+02  0.50000000E+00  0.00000000E+00
  0.00000000E+00  0.19902439E+02  0.13664596E+02  0.50000000E+00  0.00000000E+00
  0.00000000E+00  0.19902439E+02  0.14640638E+02  0.50000000E+00  0.00000000E+00
  0.00000000E+00  0.19902439E+02  0.15616681E+02  0.50000000E+00  0.00000000E+00
  0.00000000E+00  0.19902439E+02  0.16592723E+02  0.50000000E+00  0.00000000E+00
  0.00000000E+00  0.19902439E+02  0.17568766E+02  0.50000000E+00  0.00000000E+00
  0.00000000E+00  0.19902439E+02  0.18544808E+02  0.50000000E+00  0.00000000E+00
  0.00000000E+00  0.19902439E+02  0.19520851E+02  0.50000000E+00  0.00000000E+00
  0.00000000E+00  0.19902439E+02  0.20496893E+02  0.49686523E+00 -0.10371126E-09
  0.00000000E+00  0.22390244E+02  0.00000000E+00  0.50000000E+00  0.00000000E+00
  0.00000000E+00  0.22390244E+02  0.97605789E+00  0.50000000E+00  0.00000000E+00
  0.00000000E+00  0.22390244E+02  0.19521158E+01  0.50000000E+00  0.00000000E+00
  0.00000000E+00  0.22390244E+02  0.29281737E+01  0.50000000E+00  0.00000000E+00
  0.00000000E+00  0.22390244E+02  0.39042315E+01  0.50000000E+00  0.00000000E+00
  0.00000000E+00  0.22390244E+02  0.48802894E+01  0.50000000E+00  0.00000000E+00
  0.00000000E+00  0.22390244E+02  0.58563473E+01  0.50000000E+00  0.00000000E+00
  0.00000000E+00  0.22390244E+02  0.68324052E+01  0.50000000E+00  0.00000000E+00
  0.00000000E+00  0.22390244E+02  0.78084631E+01  0.50000000E+00  0.00000000E+00
  0.00000000E+00  0.22390244E+02  0.87845210E+01  0.50000000E+00  0.00000000E+00
  0.00000000E+00  0.22390244E+02  0.97605789E+01  0.50000000E+00  0.00000000E+00
  0.00000000E+00  0.22390244E+02  0.10736637E+02  0.50000000E+00  0.00000000E+00
  0.00000000E+00  0.22390244E+02  0.11712695E+02  0.50000000E+00  0.00000000E+00
  0.00000000E+00  0.22390244E+02  0.12688753E+02  0.50000000E+00  0.00000000E+00
  0.00000000E+00  0.22390244E+02  0.13664810E+02  0.50000000E+00  0.00000000E+00
  0.00000000E+00  0.22390244E+02  0.14640868E+02  0.50000000E+00  0.00000000E+00
  0.00000000E+00  0.22390244E+02  0.15616926E+02  0.50000000E+00  0.00000000E+00
  0.00000000E+00  0.22390244E+02  0.16592984E+02  0.50000000E+00  0.00000000E+00
  0.00000000E+00  0.22390244E+02  0.17569042E+02  0.50000000E+00  0.00000000E+00
  0.00000000E+00  0.22390244E+02  0.18545100E+02  0.50000000E+00  0.00000000E+00
  0.00000000E+00  0.22390244E+02  0.19521158E+02  0.50000000E+00  0.00000000E+00
  0.00000000E+00  0.22390244E+02  0.20497216E+02  0.49718841E+00 -0.19020753E-09
  0.00000000E+00  0.24878049E+02  0.00000000E+00  0.50000000E+00  0.00000000E+00
  0.00000000E+00  0.24878049E+02  0.97604450E+00  0.50000000E+00  0.00000000E+00
  0.00000000E+00  0.24878049E+02  0.19520890E+01  0.50000000E+00  0.00000000E+00
  0.00000000E+00  0.24878049E+02  0.29281335E+01  0.50000000E+00  0.00000000E+00
  0.00000000E+00  0.24878049E+02  0.39041780E+01  0.50000000E+00  0.00000000E+00
  0.00000000E+00  0.24878049E+02  0.48802225E+01  0.50000000E+00  0.00000000E+00
  0.00000000E+00  0.24878049E+02  0.58562670E+01  0.50000000E+00  0.00000000E+00
  0.00000000E+00  0.24878049E+02  0.68323115E+01  0.50000000E+00  0.00000000E+00
  0.00000000E+00  0.24878049E+02  0.78083560E+01  0.50000000E+00  0.00000000E+00
  0.00000000E+00  0.24878049E+02  0.87844005E+01  0.50000000E+00  0.00000000E+00
  0.00000000E+00  0.24878049E+02  0.97604450E+01  0.50000000E+00  0.00000000E+00
  0.00000000E+00  0.24878049E+02  0.10736489E+02  0.50000000E+00  0.00000000E+00
  0.00000000E+00  0.24878049E+02  0.11712534E+02  0.50000000E+00  0.00000000E+00
  0.00000000E+00  0.24878049E+02  0.12688578E+02  0.50000000E+00  0.00000000E+00
  0.00000000E+00  0.24878049E+02  0.13664623E+02  0.50000000E+00  0.00000000E+00
  0.00000000E+00  0.24878049E+02  0.14640667E+02  0.50000000E+00  0.00000000E+00
  0.00000000E+00  0.24878049E+02  0.15616712E+02  0.50000000E+00  0.00000000E+00
  0.00000000E+00  0.24878049E+02  0.16592756E+02  0.50000000E+00  0.00000000E+00
  0.00000000E+00  0.24878049E+02  0.17568801E+02  0.50000000E+00  0.00000000E+00
  0.00000000E+00  0.24878049E+02  0.18544845E+02  0.50000000E+00  0.00000000E+00
  0.00000000E+00  0.24878049E+02  0.19520890E+02  0.50000000E+00  0.00000000E+00
  0.00000000E+00  0.24878049E+02  0.20496934E+02  0.49690271E+00 -0.29898062E-09
  0.00000000E+00  0.27365854E+02  0.00000000E+00  0.50000000E+00  0.00000000E+00
  0.00000000E+00  0.27365854E+02  0.97605373E+00  0.50000000E+00  0.00000000E+00
  0.00000000E+00  0.27365854E+02  0.19521075E+01  0.50000000E+00  0.00000000E+00
  0.00000000E+00  0.27365854E+02  0.29281612E+01  0.50000000E+00  0.00000000E+00
  0.00000000E+00  0.27365854E+02  0.39042149E+01  0.50000000E+00  0.00000000E+00
  0.00000000E+00  0.27365854E+02  0.48802686E+01  0.50000000E+00  0.00000000E+00
  0.00000000E+00  0.27365854E+02  0.58563224E+01  0.50000000E+00  0.00000000E+00
  0.00000000E+00  0.27365854E+02  0.68323761E+01  0.50000000E+00  0.00000000E+00
  0.00000000E+00  0.27365854E+02  0.78084298E+01  0.50000000E+00  0.00000000E+00
  0.00000000E+00  0.27365854E+02  0.87844835E+01  0.50000000E+00  0.00000000E+00
  0.00000000E+00  0.27365854E+02  0.97605373E+01  0.50000000E+00  0.00000000E+00
  0.00000000E+00  0.27365854E+02  0.10736591E+02  0.50000000E+00  0.00000000E+00
  0.00000000E+00  0.27365854E+02  0.11712645E+02  0.50000000E+00  0.00000000E+00
  0.00000000E+00  0.27365854E+02  0.12688698E+02  0.50000000E+00  0.00000000E+00
  0.00000000E+00  0.27365854E+02  0.13664752E+02  0.50000000E+00  0.00000000E+00
  0.00000000E+00  0.27365854E+02  0.14640806E+02  0.50000000E+00  0.00000000E+00
  0.00000000E+00  0.27365854E+02  0.15616860E+02  0.50000000E+00  0.00000000E+00
  0.00000000E+00  0.27365854E+02  0.16592913E+02  0.50000000E+00  0.00000000E+00
  0.00000000E+00  0.27365854E+02  0.17568967E+02  0.50000000E+00  0.00000000E+00
  0.00000000E+00  0.27365854E+02  0.18545021E+02  0.50000000E+00  0.00000000E+00
  0.00000000E+00  0.27365854E+02  0.19521075E+02  0.50000000E+00  0.00000000E+00
  0.00000000E+00  0.27365854E+02  0.20497128E+02  0.49709427E+00 -0.33510688E-09
  0.00000000E+00  0.29853659E+02  0.00000000E+00  0.50000000E+00  0.00000000E+00
  0.00000000E+00  0.29853659E+02  0.97602443E+00  0.50000000E+00  0.00000000E+00
  0.00000000E+00  0.29853659E+02  0.19520489E+01  0.50000000E+00  0.00000000E+00
  0.00000000E+00  0.29853659E+02  0.29280733E+01  0.50000000E+00  0.00000000E+00
  0.00000000E+00  0.29853659E+02  0.39040977E+01  0.50000000E+00  0.00000000E+00
  0.00000000E+00  0.29853659E+02  0.48801221E+01  0.50000000E+00  0.00000000E+00
  0.00000000E+00  0.29853659E+02  0.58561466E+01  0.50000000E+00  0.00000000E+00
  0.00000000E+00  0.29853659E+02  0.68321710E+01  0.50000000E+00  0.00000000E+00
  0.00000000E+00  0.29853659E+02  0.78081954E+01  0.50000000E+00  0.00000000E+00
  0.00000000E+00  0.29853659E+02  0.87842198E+01  0.50000000E+00  0.00000000E+00
  0.00000000E+00  0.29853659E+02  0.97602443E+01  0.50000000E+00  0.00000000E+00
  0.00000000E+00  0.29853659E+02  0.10736269E+02  0.50000000E+00  0.00000000E+00
  0.00000000E+00  0.29853659E+02  0.11712293E+02  0.50000000E+00  0.00000000E+00
  0.00000000E+00  0.29853659E+02  0.12688318E+02  0.50000000E+00  0.00000000E+00
  0.00000000E+00  0.29853659E+02  0.13664342E+02  0.50000000E+00  0.00000000E+00
  0.00000000E+00  0.29853659E+02  0.14640366E+02  0.50000000E+00  0.00000000E+00
  0.00000000E+00  0.29853659E+02  0.15616391E+02  0.50000000E+00  0.00000000E+00
  0.00000000E+00  0.29853659E+02  0.16592415E+02  0.50000000E+00  0.00000000E+00
  0.00000000E+00  0.29853659E+02  0.17568440E+02  0.50000000E+00  0.00000000E+00
  0.00000000E+00  0.29853659E+02  0.18544464E+02  0.50000000E+00  0.00000000E+00
  0.00000000E+00  0.29853659E+02  0.19520489E+02  0.50000000E+00  0.00000000E+00
  0.00000000E+00  0.29853659E+02  0.20496513E+02  0.49647826E+00 -0.27179180E-09
  0.00000000E+00  0.32341463E+02  0.00000000E+00  0.50000000E+00  0.00000000E+00
  0.00000000E+00  0.32341463E+02  0.97602459E+00  0.50000000E+00  0.00000000E+00
  0.00000000E+00  0.32341463E+02  0.19520492E+01  0.50000000E+00  0.00000000E+00
  0.00000000E+00  0.32341463E+02  0.29280738E+01  0.50000000E+00  0.00000000E+00
  0.00000000E+00  0.32341463E+02  0.39040984E+01  0.50000000E+00  0.00000000E+00
  0.00000000E+00  0.32341463E+02  0.48801230E+01  0.50000000E+00  0.00000000E+00
  0.00000000E+00  0.32341463E+02  0.58561476E+01  0.50000000E+00  0.00000000E+00
  0.00000000E+00  0.32341463E+02  0.68321721E+01  0.50000000E+00  0.00000000E+00
  0.00000000E+00  0.32341463E+02  0.78081967E+01  0.50000000E+00  0.00000000E+00
  0.00000000E+00  0.32341463E+02  0.87842213E+01  0.50000000E+00  0.00000000E+00
  0.00000000E+00  0.32341463E+02  0.97602459E+01  0.50000000E+00  0.00000000E+00
  0.00000000E+00  0.32341463E+02  0.10736271E+02  0.50000000E+00  0.00000000E+00
  0.00000000E+00  0.32341463E+02  0.11712295E+02  0.50000000E+00  0.00000000E+00
  0.00000000E+00  0.32341463E+02  0.12688320E+02  0.50000000E+00  0.00000000E+00
  0.00000000E+00  0.32341463E+02  0.13664344E+02  0.50000000E+00  0.00000000E+00
  0.00000000E+00  0.32341463E+02  0.14640369E+02  0.50000000E+00  0.00000000E+00
  0.00000000E+00  0.32341463E+02  0.15616393E+02  0.50000000E+00  0.00000000E+00
  0.00000000E+00  0.32341463E+02  0.16592418E+02  0.50000000E+00  0.00000000E+00
  0.00000000E+00  0.32341463E+02  0.17568443E+02  0.50000000E+00  0.00000000E+00
  0.00000000E+00  0.32341463E+02  0.18544467E+02  0.50000000E+00  0.00000000E+00
  0.00000000E+00  0.32341463E+02  0.19520492E+02  0.50000000E+00  0.00000000E+00
  0.00000000E+00  0.32341463E+02  0.20496516E+02  0.49648590E+00 -0.18100553E-09
  0.00000000E+00  0.34829268E+02  0.00000000E+00  0.50000000E+00  0.00000000E+00
  0.00000000E+00  0.34829268E+02  0.97606186E+00  0.50000000E+00  0.00000000E+00
  0.00000000E+00  0.34829268E+02  0.19521237E+01  0.50000000E+00  0.00000000E+00
  0.00000000E+00  0.34829268E+02  0.29281856E+01  0.50000000E+00  0.00000000E+00
  0.00000000E+00  0.34829268E+02  0.39042474E+01  0.50000000E+00  0.00000000E+00
  0.00000000E+00  0.34829268E+02  0.48803093E+01  0.50000000E+00  0.00000000E+00
  0.00000000E+00  0.34829268E+02  0.58563712E+01  0.50000000E+00  0.00000000E+00
  0.00000000E+00  0.34829268E+02  0.68324330E+01  0.50000000E+00  0.00000000E+00
  0.00000000E+00  0.34829268E+02  0.78084949E+01  0.50000000E+00  0.00000000E+00
  0.00000000E+00  0.34829268E+02  0.87845567E+01  0.50000000E+00  0.00000000E+00
  0.00000000E+00  0.34829268E+02  0.97606186E+01  0.50000000E+00  0.00000000E+00
  0.00000000E+00  0.34829268E+02  0.10736680E+02  0.50000000E+00  0.00000000E+00
  0.00000000E+00  0.34829268E+02  0.11712742E+02  0.50000000E+00  0.00000000E+00
  0.00000000E+00  0.34829268E+02  0.12688804E+02  0.50000000E+00  0.00000000E+00
  0.00000000E+00  0.34829268E+02  0.13664866E+02  0.50000000E+00  0.00000000E+00
  0.00000000E+00  0.34829268E+02  0.14640928E+02  0.50000000E+00  0.00000000E+00
  0.00000000E+00  0.34829268E+02  0.15616990E+02  0.50000000E+00  0.00000000E+00
  0.00000000E+00  0.34829268E+02  0.16593052E+02  0.50000000E+00  0.00000000E+00
  0.00000000E+00  0.34829268E+02  0.17569113E+02  0.50000000E+00  0.00000000E+00
  0.00000000E+00  0.34829268E+02  0.18545175E+02  0.50000000E+00  0.00000000E+00
  0.00000000E+00  0.34829268E+02  0.19521237E+02  0.50000000E+00  0.00000000E+00
  0.00000000E+00  0.34829268E+02  0.20497299E+02  0.49727491E+00 -0.21276596E-09
  0.00000000E+00  0.37317073E+02  0.00000000E+00  0.50000000E+00  0.00000000E+00
  0.00000000E+00  0.37317073E+02  0.97609977E+00  0.50000000E+00  0.00000000E+00
  0.00000000E+00  0.37317073E+02  0.19521995E+01  0.50000000E+00  0.00000000E+00
  0.00000000E+00  0.37317073E+02  0.29282993E+01  0.50000000E+00  0.00000000E+00
  0.00000000E+00  0.37317073E+02  0.39043991E+01  0.50000000E+00  0.00000000E+00
  0.00000000E+00  0.37317073E+02  0.48804988E+01  0.50000000E+00  0.00000000E+00
  0.00000000E+00  0.37317073E+02  0.58565986E+01  0.50000000E+00  0.00000000E+00
  0.00000000E+00  0.37317073E+02  0.68326984E+01  0.50000000E+00  0.00000000E+00
  0.00000000E+00  0.37317073E+02  0.78087981E+01  0.50000000E+00  0.00000000E+00
  0.00000000E+00  0.37317073E+02  0.87848979E+01  0.50000000E+00  0.00000000E+00
  0.00000000E+00  0.37317073E+02  0.97609977E+01  0.50000000E+00  0.00000000E+00
  0.00000000E+00  0.37317073E+02  0.10737097E+02  0.50000000E+00  0.00000000E+00
  0.00000000E+00  0.37317073E+02  0.11713197E+02  0.50000000E+00  0.00000000E+00
  0.00000000E+00  0.37317073E+02  0.12689297E+02  0.50000000E+00  0.00000000E+00
  0.00000000E+00  0.37317073E+02  0.13665397E+02  0.50000000E+00  0.00000000E+00
  0.00000000E+00  0.37317073E+02  0.14641497E+02  0.50000000E+00  0.00000000E+00
  0.00000000E+00  0.37317073E+02  0.15617596E+02  0.50000000E+00  0.00000000E+00
  0.00000000E+00  0.37317073E+02  0.16593696E+02  0.50000000E+00  0.00000000E+00
  0.00000000E+00  0.37317073E+02  0.17569796E+02  0.50000000E+00  0.00000000E+00
  0.00000000E+00  0.37317073E+02  0.18545896E+02  0.50000000E+00  0.00000000E+00
  0.00000000E+00  0.37317073E+02  0.19521995E+02  0.50000000E+00  0.00000000E+00
  0.00000000E+00  0.37317073E+02  0.20498095E+02  0.49807749E+00 -0.23614803E-09
  0.00000000E+00  0.39804878E+02  0.00000000E+00  0.50000000E+00  0.00000000E+00
  0.00000000E+00  0.39804878E+02  0.97609204E+00  0.50000000E+00  0.00000000E+00
  0.00000000E+00  0.39804878E+02  0.19521841E+01  0.50000000E+00  0.00000000E+00
  0.00000000E+00  0.39804878E+02  0.29282761E+01  0.50000000E+00  0.00000000E+00
  0.00000000E+00  0.39804878E+02  0.39043682E+01  0.50000000E+00  0.00000000E+00
  0.00000000E+00  0.39804878E+02  0.48804602E+01  0.50000000E+00  0.00000000E+00
  0.00000000E+00  0.39804878E+02  0.58565523E+01  0.50000000E+00  0.00000000E+00
  0.00000000E+00  0.39804878E+02  0.68326443E+01  0.50000000E+00  0.00000000E+00
  0.00000000E+00  0.39804878E+02  0.78087364E+01  0.50000000E+00  0.00000000E+00
  0.00000000E+00  0.39804878E+02  0.87848284E+01  0.50000000E+00  0.00000000E+00
  0.00000000E+00  0.39804878E+02  0.97609204E+01  0.50000000E+00  0.00000000E+00
  0.00000000E+00  0.39804878E+02  0.10737012E+02  0.50000000E+00  0.00000000E+00
  0.00000000E+00  0.39804878E+02  0.11713105E+02  0.50000000E+00  0.00000000E+00
  0.00000000E+00  0.39804878E+02  0.12689197E+02  0.50000000E+00  0.00000000E+00
  0.00000000E+00  0.39804878E+02  0.13665289E+02  0.50000000E+00  0.00000000E+00
  0.00000000E+00  0.39804878E+02  0.14641381E+02  0.50000000E+00  0.00000000E+00