title="2d K section "
variables="x","z","Kx","logKx","Kz","logKz","porosity"
zone i=    22, j=    42,T="Initial K at t=0"
   0.0000000E+00   0.0000000E+00   0.4331117E-04  -0.4363400E+01   0.4331117E-04  -0.4363400E+01   0.3000000E+00
   0.0000000E+00   0.9761905E+00   0.5640233E-04  -0.4248703E+01   0.5640233E-04  -0.4248703E+01   0.3000000E+00
   0.0000000E+00   0.1952381E+01   0.2440103E-03  -0.3612592E+01   0.2440103E-03  -0.3612592E+01   0.3000000E+00
   0.0000000E+00   0.2928571E+01   0.3006391E-03  -0.3521955E+01   0.3006391E-03  -0.3521955E+01   0.3000000E+00
   0.0000000E+00   0.3904762E+01   0.2041205E-03  -0.3690113E+01   0.2041205E-03  -0.3690113E+01   0.3000000E+00
   0.0000000E+00   0.4880952E+01   0.3933936E-03  -0.3405173E+01   0.3933936E-03  -0.3405173E+01   0.3000000E+00
   0.0000000E+00   0.5857143E+01   0.2119839E-03  -0.3673697E+01   0.2119839E-03  -0.3673697E+01   0.3000000E+00
   0.0000000E+00   0.6833333E+01   0.7207524E-04  -0.4142214E+01   0.7207524E-04  -0.4142214E+01   0.3000000E+00
   0.0000000E+00   0.7809524E+01   0.4835214E-04  -0.4315584E+01   0.4835214E-04  -0.4315584E+01   0.3000000E+00
   0.0000000E+00   0.8785714E+01   0.5218581E-04  -0.4282448E+01   0.5218581E-04  -0.4282448E+01   0.3000000E+00
   0.0000000E+00   0.9761905E+01   0.5612103E-04  -0.4250874E+01   0.5612103E-04  -0.4250874E+01   0.3000000E+00
   0.0000000E+00   0.1073810E+02   0.6436569E-06  -0.6191346E+01   0.6436569E-06  -0.6191346E+01   0.3000000E+00
   0.0000000E+00   0.1171429E+02   0.2167546E-06  -0.6664032E+01   0.2167546E-06  -0.6664032E+01   0.3000000E+00
   0.0000000E+00   0.1269048E+02   0.2658323E-06  -0.6575392E+01   0.2658323E-06  -0.6575392E+01   0.3000000E+00
   0.0000000E+00   0.1366667E+02   0.4418856E-07  -0.7354690E+01   0.4418856E-07  -0.7354690E+01   0.3000000E+00
   0.0000000E+00   0.1464286E+02   0.3820116E-07  -0.7417923E+01   0.3820116E-07  -0.7417923E+01   0.3000000E+00
   0.0000000E+00   0.1561905E+02   0.2962180E-04  -0.4528389E+01   0.2962180E-04  -0.4528389E+01   0.3000000E+00
   0.0000000E+00   0.1659524E+02   0.1124148E-04  -0.4949176E+01   0.1124148E-04  -0.4949176E+01   0.3000000E+00
   0.0000000E+00   0.1757143E+02   0.1598596E-04  -0.4796261E+01   0.1598596E-04  -0.4796261E+01   0.3000000E+00
   0.0000000E+00   0.1854762E+02   0.1726550E-04  -0.4762821E+01   0.1726550E-04  -0.4762821E+01   0.3000000E+00
   0.0000000E+00   0.1952381E+02   0.1141251E-04  -0.4942619E+01   0.1141251E-04  -0.4942619E+01   0.3000000E+00
   0.0000000E+00   0.2050000E+02   0.1141251E-04  -0.4942619E+01   0.1141251E-04  -0.4942619E+01   0.3000000E+00
   0.2487805E+01   0.0000000E+00   0.2173471E-04  -0.4662846E+01   0.2173471E-04  -0.4662846E+01   0.3000000E+00
   0.2487805E+01   0.9761905E+00   0.4390423E-04  -0.4357494E+01   0.4390423E-04  -0.4357494E+01   0.3000000E+00
   0.2487805E+01   0.1952381E+01   0.1502966E-03  -0.3823051E+01   0.1502966E-03  -0.3823051E+01   0.3000000E+00
   0.2487805E+01   0.2928571E+01   0.3486298E-03  -0.3457636E+01   0.3486298E-03  -0.3457636E+01   0.3000000E+00
   0.2487805E+01   0.3904762E+01   0.2275365E-03  -0.3642949E+01   0.2275365E-03  -0.3642949E+01   0.3000000E+00
   0.2487805E+01   0.4880952E+01   0.1307008E-03  -0.3883722E+01   0.1307008E-03  -0.3883722E+01   0.3000000E+00
   0.2487805E+01   0.5857143E+01   0.1114204E-03  -0.3953035E+01   0.1114204E-03  -0.3953035E+01   0.3000000E+00
   0.2487805E+01   0.6833333E+01   0.5192034E-04  -0.4284662E+01   0.5192034E-04  -0.4284662E+01   0.3000000E+00
   0.2487805E+01   0.7809524E+01   0.2739089E-04  -0.4562394E+01   0.2739089E-04  -0.4562394E+01   0.3000000E+00
   0.2487805E+01   0.8785714E+01   0.3845969E-04  -0.4414994E+01   0.3845969E-04  -0.4414994E+01   0.3000000E+00
   0.2487805E+01   0.9761905E+01   0.3430224E-04  -0.4464678E+01   0.3430224E-04  -0.4464678E+01   0.3000000E+00
   0.2487805E+01   0.1073810E+02   0.5604001E-07  -0.7251502E+01   0.5604001E-07  -0.7251502E+01   0.3000000E+00
   0.2487805E+01   0.1171429E+02   0.3170156E-07  -0.7498919E+01   0.3170156E-07  -0.7498919E+01   0.3000000E+00
   0.2487805E+01   0.1269048E+02   0.2167947E-07  -0.7663951E+01   0.2167947E-07  -0.7663951E+01   0.3000000E+00
   0.2487805E+01   0.1366667E+02   0.3420086E-08  -0.8465963E+01   0.3420086E-08  -0.8465963E+01   0.3000000E+00
   0.2487805E+01   0.1464286E+02   0.4775150E-04  -0.4321013E+01   0.4775150E-04  -0.4321013E+01   0.3000000E+00
   0.2487805E+01   0.1561905E+02   0.2925091E-04  -0.4533861E+01   0.2925091E-04  -0.4533861E+01   0.3000000E+00
   0.2487805E+01   0.1659524E+02   0.1190324E-04  -0.4924335E+01   0.1190324E-04  -0.4924335E+01   0.3000000E+00
   0.2487805E+01   0.1757143E+02   0.3127473E-04  -0.4504806E+01   0.3127473E-04  -0.4504806E+01   0.3000000E+00
   0.2487805E+01   0.1854762E+02   0.1846193E-04  -0.4733723E+01   0.1846193E-04  -0.4733723E+01   0.3000000E+00
   0.2487805E+01   0.1952381E+02   0.1661009E-04  -0.4779628E+01   0.1661009E-04  -0.4779628E+01   0.3000000E+00
   0.2487805E+01   0.2050000E+02   0.1661009E-04  -0.4779628E+01   0.1661009E-04  -0.4779628E+01   0.3000000E+00
   0.4975610E+01   0.0000000E+00   0.1101558E-04  -0.4957993E+01   0.1101558E-04  -0.4957993E+01   0.3000000E+00
   0.4975610E+01   0.9761905E+00   0.1538989E-04  -0.4812765E+01   0.1538989E-04  -0.4812765E+01   0.3000000E+00
   0.4975610E+01   0.1952381E+01   0.2927432E-04  -0.4533513E+01   0.2927432E-04  -0.4533513E+01   0.3000000E+00
   0.4975610E+01   0.2928571E+01   0.8475888E-04  -0.4071815E+01   0.8475888E-04  -0.4071815E+01   0.3000000E+00
   0.4975610E+01   0.3904762E+01   0.8849186E-04  -0.4053097E+01   0.8849186E-04  -0.4053097E+01   0.3000000E+00
   0.4975610E+01   0.4880952E+01   0.5178034E-04  -0.4285835E+01   0.5178034E-04  -0.4285835E+01   0.3000000E+00
   0.4975610E+01   0.5857143E+01   0.3063094E-04  -0.4513840E+01   0.3063094E-04  -0.4513840E+01   0.3000000E+00
   0.4975610E+01   0.6833333E+01   0.4325490E-04  -0.4363965E+01   0.4325490E-04  -0.4363965E+01   0.3000000E+00
   0.4975610E+01   0.7809524E+01   0.4704058E-04  -0.4327527E+01   0.4704058E-04  -0.4327527E+01   0.3000000E+00
   0.4975610E+01   0.8785714E+01   0.3199919E-04  -0.4494861E+01   0.3199919E-04  -0.4494861E+01   0.3000000E+00
   0.4975610E+01   0.9761905E+01   0.3370380E-04  -0.4472321E+01   0.3370380E-04  -0.4472321E+01   0.3000000E+00
   0.4975610E+01   0.1073810E+02   0.9770482E-08  -0.8010084E+01   0.9770482E-08  -0.8010084E+01   0.3000000E+00
   0.4975610E+01   0.1171429E+02   0.8065259E-08  -0.8093382E+01   0.8065259E-08  -0.8093382E+01   0.3000000E+00
   0.4975610E+01   0.1269048E+02   0.3805951E-08  -0.8419537E+01   0.3805951E-08  -0.8419537E+01   0.3000000E+00
   0.4975610E+01   0.1366667E+02   0.3036076E-08  -0.8517687E+01   0.3036076E-08  -0.8517687E+01   0.3000000E+00
   0.4975610E+01   0.1464286E+02   0.2910502E-04  -0.4536032E+01   0.2910502E-04  -0.4536032E+01   0.3000000E+00
   0.4975610E+01   0.1561905E+02   0.2956557E-04  -0.4529214E+01   0.2956557E-04  -0.4529214E+01   0.3000000E+00
   0.4975610E+01   0.1659524E+02   0.3044466E-04  -0.4516489E+01   0.3044466E-04  -0.4516489E+01   0.3000000E+00
   0.4975610E+01   0.1757143E+02   0.1405827E-04  -0.4852068E+01   0.1405827E-04  -0.4852068E+01   0.3000000E+00
   0.4975610E+01   0.1854762E+02   0.1915398E-04  -0.4717741E+01   0.1915398E-04  -0.4717741E+01   0.3000000E+00
   0.4975610E+01   0.1952381E+02   0.1615308E-04  -0.4791745E+01   0.1615308E-04  -0.4791745E+01   0.3000000E+00
   0.4975610E+01   0.2050000E+02   0.1615308E-04  -0.4791745E+01   0.1615308E-04  -0.4791745E+01   0.3000000E+00
   0.7463415E+01   0.0000000E+00   0.8352080E-05  -0.5078205E+01   0.8352080E-05  -0.5078205E+01   0.3000000E+00
   0.7463415E+01   0.9761905E+00   0.1390725E-04  -0.4856759E+01   0.1390725E-04  -0.4856759E+01   0.3000000E+00
   0.7463415E+01   0.1952381E+01   0.1728969E-04  -0.4762213E+01   0.1728969E-04  -0.4762213E+01   0.3000000E+00
   0.7463415E+01   0.2928571E+01   0.2165228E-04  -0.4664496E+01   0.2165228E-04  -0.4664496E+01   0.3000000E+00
   0.7463415E+01   0.3904762E+01   0.1815617E-04  -0.4740976E+01   0.1815617E-04  -0.4740976E+01   0.3000000E+00
   0.7463415E+01   0.4880952E+01   0.2082826E-04  -0.4681347E+01   0.2082826E-04  -0.4681347E+01   0.3000000E+00
   0.7463415E+01   0.5857143E+01   0.1275484E-04  -0.4894325E+01   0.1275484E-04  -0.4894325E+01   0.3000000E+00
   0.7463415E+01   0.6833333E+01   0.3226266E-04  -0.4491300E+01   0.3226266E-04  -0.4491300E+01   0.3000000E+00
   0.7463415E+01   0.7809524E+01   0.6032886E-04  -0.4219475E+01   0.6032886E-04  -0.4219475E+01   0.3000000E+00
   0.7463415E+01   0.8785714E+01   0.4824106E-04  -0.4316583E+01   0.4824106E-04  -0.4316583E+01   0.3000000E+00
   0.7463415E+01   0.9761905E+01   0.5364083E-04  -0.4270504E+01   0.5364083E-04  -0.4270504E+01   0.3000000E+00
   0.7463415E+01   0.1073810E+02   0.1325621E-07  -0.7877581E+01   0.1325621E-07  -0.7877581E+01   0.3000000E+00
   0.7463415E+01   0.1171429E+02   0.2753481E-08  -0.8560118E+01   0.2753481E-08  -0.8560118E+01   0.3000000E+00
   0.7463415E+01   0.1269048E+02   0.6969656E-08  -0.8156789E+01   0.6969656E-08  -0.8156789E+01   0.3000000E+00
   0.7463415E+01   0.1366667E+02   0.3446178E-08  -0.8462662E+01   0.3446178E-08  -0.8462662E+01   0.3000000E+00
   0.7463415E+01   0.1464286E+02   0.3474065E-04  -0.4459162E+01   0.3474065E-04  -0.4459162E+01   0.3000000E+00
   0.7463415E+01   0.1561905E+02   0.4023393E-04  -0.4395408E+01   0.4023393E-04  -0.4395408E+01   0.3000000E+00
   0.7463415E+01   0.1659524E+02   0.4628466E-04  -0.4334563E+01   0.4628466E-04  -0.4334563E+01   0.3000000E+00
   0.7463415E+01   0.1757143E+02   0.1807827E-04  -0.4742843E+01   0.1807827E-04  -0.4742843E+01   0.3000000E+00
   0.7463415E+01   0.1854762E+02   0.3836749E-04  -0.4416037E+01   0.3836749E-04  -0.4416037E+01   0.3000000E+00
   0.7463415E+01   0.1952381E+02   0.2484883E-04  -0.4604694E+01   0.2484883E-04  -0.4604694E+01   0.3000000E+00
   0.7463415E+01   0.2050000E+02   0.2484883E-04  -0.4604694E+01   0.2484883E-04  -0.4604694E+01   0.3000000E+00
   0.9951220E+01   0.0000000E+00   0.1486502E-04  -0.4827835E+01   0.1486502E-04  -0.4827835E+01   0.3000000E+00
   0.9951220E+01   0.9761905E+00   0.2289253E-04  -0.4640306E+01   0.2289253E-04  -0.4640306E+01   0.3000000E+00
   0.9951220E+01   0.1952381E+01   0.2878086E-04  -0.4540896E+01   0.2878086E-04  -0.4540896E+01   0.3000000E+00
   0.9951220E+01   0.2928571E+01   0.2638803E-04  -0.4578593E+01   0.2638803E-04  -0.4578593E+01   0.3000000E+00
   0.9951220E+01   0.3904762E+01   0.1580633E-04  -0.4801169E+01   0.1580633E-04  -0.4801169E+01   0.3000000E+00
   0.9951220E+01   0.4880952E+01   0.1315380E-04  -0.4880949E+01   0.1315380E-04  -0.4880949E+01   0.3000000E+00
   0.9951220E+01   0.5857143E+01   0.3606456E-04  -0.4442919E+01   0.3606456E-04  -0.4442919E+01   0.3000000E+00
   0.9951220E+01   0.6833333E+01   0.1421518E-04  -0.4847248E+01   0.1421518E-04  -0.4847248E+01   0.3000000E+00
   0.9951220E+01   0.7809524E+01   0.1076404E-04  -0.4968025E+01   0.1076404E-04  -0.4968025E+01   0.3000000E+00
   0.9951220E+01   0.8785714E+01   0.2273057E-04  -0.4643390E+01   0.2273057E-04  -0.4643390E+01   0.3000000E+00
   0.9951220E+01   0.9761905E+01   0.2846600E-04  -0.4545673E+01   0.2846600E-04  -0.4545673E+01   0.3000000E+00
   0.9951220E+01   0.1073810E+02   0.2390890E-08  -0.8621440E+01   0.2390890E-08  -0.8621440E+01   0.3000000E+00
   0.9951220E+01   0.1171429E+02   0.4968241E-08  -0.8303797E+01   0.4968241E-08  -0.8303797E+01   0.3000000E+00
   0.9951220E+01   0.1269048E+02   0.1348079E-07  -0.7870285E+01   0.1348079E-07  -0.7870285E+01   0.3000000E+00
   0.9951220E+01   0.1366667E+02   0.3318012E-08  -0.8479122E+01   0.3318012E-08  -0.8479122E+01   0.3000000E+00
   0.9951220E+01   0.1464286E+02   0.3418581E-04  -0.4466154E+01   0.3418581E-04  -0.4466154E+01   0.3000000E+00
   0.9951220E+01   0.1561905E+02   0.6872483E-04  -0.4162886E+01   0.6872483E-04  -0.4162886E+01   0.3000000E+00
   0.9951220E+01   0.1659524E+02   0.3899801E-04  -0.4408958E+01   0.3899801E-04  -0.4408958E+01   0.3000000E+00
   0.9951220E+01   0.1757143E+02   0.3143779E-04  -0.4502548E+01   0.3143779E-04  -0.4502548E+01   0.3000000E+00
   0.9951220E+01   0.1854762E+02   0.5086681E-04  -0.4293566E+01   0.5086681E-04  -0.4293566E+01   0.3000000E+00
   0.9951220E+01   0.1952381E+02   0.2430812E-04  -0.4614249E+01   0.2430812E-04  -0.4614249E+01   0.3000000E+00
   0.9951220E+01   0.2050000E+02   0.2430812E-04  -0.4614249E+01   0.2430812E-04  -0.4614249E+01   0.3000000E+00
   0.1243902E+02   0.0000000E+00   0.1847301E-04  -0.4733462E+01   0.1847301E-04  -0.4733462E+01   0.3000000E+00
   0.1243902E+02   0.9761905E+00   0.5429383E-04  -0.4265250E+01   0.5429383E-04  -0.4265250E+01   0.3000000E+00
   0.1243902E+02   0.1952381E+01   0.6727647E-04  -0.4172137E+01   0.6727647E-04  -0.4172137E+01   0.3000000E+00
   0.1243902E+02   0.2928571E+01   0.6917991E-04  -0.4160020E+01   0.6917991E-04  -0.4160020E+01   0.3000000E+00
   0.1243902E+02   0.3904762E+01   0.2070987E-04  -0.4683823E+01   0.2070987E-04  -0.4683823E+01   0.3000000E+00
   0.1243902E+02   0.4880952E+01   0.9944410E-05  -0.5002421E+01   0.9944410E-05  -0.5002421E+01   0.3000000E+00
   0.1243902E+02   0.5857143E+01   0.1945902E-04  -0.4710879E+01   0.1945902E-04  -0.4710879E+01   0.3000000E+00
   0.1243902E+02   0.6833333E+01   0.7530117E-05  -0.5123198E+01   0.7530117E-05  -0.5123198E+01   0.3000000E+00
   0.1243902E+02   0.7809524E+01   0.6121521E-05  -0.5213141E+01   0.6121521E-05  -0.5213141E+01   0.3000000E+00
   0.1243902E+02   0.8785714E+01   0.1762310E-04  -0.4753918E+01   0.1762310E-04  -0.4753918E+01   0.3000000E+00
   0.1243902E+02   0.9761905E+01   0.5763388E-04  -0.4239322E+01   0.5763388E-04  -0.4239322E+01   0.3000000E+00
   0.1243902E+02   0.1073810E+02   0.9344294E-08  -0.8029454E+01   0.9344294E-08  -0.8029454E+01   0.3000000E+00
   0.1243902E+02   0.1171429E+02   0.4791128E-08  -0.8319562E+01   0.4791128E-08  -0.8319562E+01   0.3000000E+00
   0.1243902E+02   0.1269048E+02   0.8561418E-08  -0.8067454E+01   0.8561418E-08  -0.8067454E+01   0.3000000E+00
   0.1243902E+02   0.1366667E+02   0.1481094E-07  -0.7829417E+01   0.1481094E-07  -0.7829417E+01   0.3000000E+00
   0.1243902E+02   0.1464286E+02   0.8724415E-04  -0.4059264E+01   0.8724415E-04  -0.4059264E+01   0.3000000E+00
   0.1243902E+02   0.1561905E+02   0.7115144E-04  -0.4147816E+01   0.7115144E-04  -0.4147816E+01   0.3000000E+00
   0.1243902E+02   0.1659524E+02   0.7955197E-04  -0.4099349E+01   0.7955197E-04  -0.4099349E+01   0.3000000E+00
   0.1243902E+02   0.1757143E+02   0.3435029E-04  -0.4464070E+01   0.3435029E-04  -0.4464070E+01   0.3000000E+00
   0.1243902E+02   0.1854762E+02   0.3194484E-04  -0.4495599E+01   0.3194484E-04  -0.4495599E+01   0.3000000E+00
   0.1243902E+02   0.1952381E+02   0.2175863E-04  -0.4662368E+01   0.2175863E-04  -0.4662368E+01   0.3000000E+00
   0.1243902E+02   0.2050000E+02   0.2175863E-04  -0.4662368E+01   0.2175863E-04  -0.4662368E+01   0.3000000E+00
   0.1492683E+02   0.0000000E+00   0.4538631E-04  -0.4343075E+01   0.4538631E-04  -0.4343075E+01   0.3000000E+00
   0.1492683E+02   0.9761905E+00   0.1163393E-03  -0.3934274E+01   0.1163393E-03  -0.3934274E+01   0.3000000E+00
   0.1492683E+02   0.1952381E+01   0.1225490E-03  -0.3911690E+01   0.1225490E-03  -0.3911690E+01   0.3000000E+00
   0.1492683E+02   0.2928571E+01   0.2347945E-03  -0.3629312E+01   0.2347945E-03  -0.3629312E+01   0.3000000E+00
   0.1492683E+02   0.3904762E+01   0.1161416E-03  -0.3935012E+01   0.1161416E-03  -0.3935012E+01   0.3000000E+00
   0.1492683E+02   0.4880952E+01   0.4568228E-04  -0.4340252E+01   0.4568228E-04  -0.4340252E+01   0.3000000E+00
   0.1492683E+02   0.5857143E+01   0.2291772E-04  -0.4639829E+01   0.2291772E-04  -0.4639829E+01   0.3000000E+00
   0.1492683E+02   0.6833333E+01   0.1481901E-04  -0.4829181E+01   0.1481901E-04  -0.4829181E+01   0.3000000E+00
   0.1492683E+02   0.7809524E+01   0.6834686E-05  -0.5165281E+01   0.6834686E-05  -0.5165281E+01   0.3000000E+00
   0.1492683E+02   0.8785714E+01   0.1314197E-04  -0.4881340E+01   0.1314197E-04  -0.4881340E+01   0.3000000E+00
   0.1492683E+02   0.9761905E+01   0.3413115E-04  -0.4466849E+01   0.3413115E-04  -0.4466849E+01   0.3000000E+00
   0.1492683E+02   0.1073810E+02   0.5839621E-08  -0.8233615E+01   0.5839621E-08  -0.8233615E+01   0.3000000E+00
   0.1492683E+02   0.1171429E+02   0.8271913E-08  -0.8082394E+01   0.8271913E-08  -0.8082394E+01   0.3000000E+00
   0.1492683E+02   0.1269048E+02   0.4929146E-08  -0.8307228E+01   0.4929146E-08  -0.8307228E+01   0.3000000E+00
   0.1492683E+02   0.1366667E+02   0.9957896E-08  -0.8001832E+01   0.9957896E-08  -0.8001832E+01   0.3000000E+00
   0.1492683E+02   0.1464286E+02   0.6144304E-04  -0.4211527E+01   0.6144304E-04  -0.4211527E+01   0.3000000E+00
   0.1492683E+02   0.1561905E+02   0.1134441E-03  -0.3945218E+01   0.1134441E-03  -0.3945218E+01   0.3000000E+00
   0.1492683E+02   0.1659524E+02   0.1198344E-03  -0.3921419E+01   0.1198344E-03  -0.3921419E+01   0.3000000E+00
   0.1492683E+02   0.1757143E+02   0.6159068E-04  -0.4210485E+01   0.6159068E-04  -0.4210485E+01   0.3000000E+00
   0.1492683E+02   0.1854762E+02   0.4515995E-04  -0.4345247E+01   0.4515995E-04  -0.4345247E+01   0.3000000E+00
   0.1492683E+02   0.1952381E+02   0.1241010E-04  -0.4906225E+01   0.1241010E-04  -0.4906225E+01   0.3000000E+00
   0.1492683E+02   0.2050000E+02   0.1241010E-04  -0.4906225E+01   0.1241010E-04  -0.4906225E+01   0.3000000E+00
   0.1741463E+02   0.0000000E+00   0.5551263E-04  -0.4255608E+01   0.5551263E-04  -0.4255608E+01   0.3000000E+00
   0.1741463E+02   0.9761905E+00   0.1435108E-03  -0.3843115E+01   0.1435108E-03  -0.3843115E+01   0.3000000E+00
   0.1741463E+02   0.1952381E+01   0.1564303E-03  -0.3805679E+01   0.1564303E-03  -0.3805679E+01   0.3000000E+00
   0.1741463E+02   0.2928571E+01   0.2361366E-03  -0.3626837E+01   0.2361366E-03  -0.3626837E+01   0.3000000E+00
   0.1741463E+02   0.3904762E+01   0.1294003E-03  -0.3888065E+01   0.1294003E-03  -0.3888065E+01   0.3000000E+00
   0.1741463E+02   0.4880952E+01   0.5617718E-04  -0.4250440E+01   0.5617718E-04  -0.4250440E+01   0.3000000E+00
   0.1741463E+02   0.5857143E+01   0.1896340E-04  -0.4722084E+01   0.1896340E-04  -0.4722084E+01   0.3000000E+00
   0.1741463E+02   0.6833333E+01   0.3269789E-04  -0.4485480E+01   0.3269789E-04  -0.4485480E+01   0.3000000E+00
   0.1741463E+02   0.7809524E+01   0.1951943E-04  -0.4709533E+01   0.1951943E-04  -0.4709533E+01   0.3000000E+00
   0.1741463E+02   0.8785714E+01   0.1864188E-04  -0.4729510E+01   0.1864188E-04  -0.4729510E+01   0.3000000E+00
   0.1741463E+02   0.9761905E+01   0.3395753E-04  -0.4469064E+01   0.3395753E-04  -0.4469064E+01   0.3000000E+00
   0.1741463E+02   0.1073810E+02   0.2299015E-07  -0.7638458E+01   0.2299015E-07  -0.7638458E+01   0.3000000E+00
   0.1741463E+02   0.1171429E+02   0.1759766E-07  -0.7754545E+01   0.1759766E-07  -0.7754545E+01   0.3000000E+00
   0.1741463E+02   0.1269048E+02   0.1006401E-07  -0.7997229E+01   0.1006401E-07  -0.7997229E+01   0.3000000E+00
   0.1741463E+02   0.1366667E+02   0.1084133E-07  -0.7964917E+01   0.1084133E-07  -0.7964917E+01   0.3000000E+00
   0.1741463E+02   0.1464286E+02   0.7644034E-04  -0.4116677E+01   0.7644034E-04  -0.4116677E+01   0.3000000E+00
   0.1741463E+02   0.1561905E+02   0.1253000E-03  -0.3902049E+01   0.1253000E-03  -0.3902049E+01   0.3000000E+00
   0.1741463E+02   0.1659524E+02   0.9428391E-04  -0.4025562E+01   0.9428391E-04  -0.4025562E+01   0.3000000E+00
   0.1741463E+02   0.1757143E+02   0.7170859E-04  -0.4144429E+01   0.7170859E-04  -0.4144429E+01   0.3000000E+00
   0.1741463E+02   0.1854762E+02   0.5840553E-04  -0.4233546E+01   0.5840553E-04  -0.4233546E+01   0.3000000E+00
   0.1741463E+02   0.1952381E+02   0.3682255E-04  -0.4433886E+01   0.3682255E-04  -0.4433886E+01   0.3000000E+00
   0.1741463E+02   0.2050000E+02   0.3682255E-04  -0.4433886E+01   0.3682255E-04  -0.4433886E+01   0.3000000E+00
   0.1990244E+02   0.0000000E+00   0.5911062E-04  -0.4228335E+01   0.5911062E-04  -0.4228335E+01   0.3000000E+00
   0.1990244E+02   0.9761905E+00   0.6667370E-04  -0.4176045E+01   0.6667370E-04  -0.4176045E+01   0.3000000E+00
   0.1990244E+02   0.1952381E+01   0.1533328E-03  -0.3814365E+01   0.1533328E-03  -0.3814365E+01   0.3000000E+00
   0.1990244E+02   0.2928571E+01   0.2082857E-03  -0.3681341E+01   0.2082857E-03  -0.3681341E+01   0.3000000E+00
   0.1990244E+02   0.3904762E+01   0.2195128E-03  -0.3658540E+01   0.2195128E-03  -0.3658540E+01   0.3000000E+00
   0.1990244E+02   0.4880952E+01   0.5719180E-04  -0.4242666E+01   0.5719180E-04  -0.4242666E+01   0.3000000E+00
   0.1990244E+02   0.5857143E+01   0.4578290E-04  -0.4339297E+01   0.4578290E-04  -0.4339297E+01   0.3000000E+00
   0.1990244E+02   0.6833333E+01   0.2266928E-04  -0.4644562E+01   0.2266928E-04  -0.4644562E+01   0.3000000E+00
   0.1990244E+02   0.7809524E+01   0.1488882E-04  -0.4827140E+01   0.1488882E-04  -0.4827140E+01   0.3000000E+00
   0.1990244E+02   0.8785714E+01   0.1483087E-04  -0.4828833E+01   0.1483087E-04  -0.4828833E+01   0.3000000E+00
   0.1990244E+02   0.9761905E+01   0.3120601E-04  -0.4505762E+01   0.3120601E-04  -0.4505762E+01   0.3000000E+00
   0.1990244E+02   0.1073810E+02   0.3337362E-07  -0.7476597E+01   0.3337362E-07  -0.7476597E+01   0.3000000E+00
   0.1990244E+02   0.1171429E+02   0.2671074E-07  -0.7573314E+01   0.2671074E-07  -0.7573314E+01   0.3000000E+00
   0.1990244E+02   0.1269048E+02   0.1872137E-07  -0.7727662E+01   0.1872137E-07  -0.7727662E+01   0.3000000E+00
   0.1990244E+02   0.1366667E+02   0.1822448E-07  -0.7739345E+01   0.1822448E-07  -0.7739345E+01   0.3000000E+00
   0.1990244E+02   0.1464286E+02   0.1356815E-03  -0.3867479E+01   0.1356815E-03  -0.3867479E+01   0.3000000E+00
   0.1990244E+02   0.1561905E+02   0.1469380E-03  -0.3832866E+01   0.1469380E-03  -0.3832866E+01   0.3000000E+00
   0.1990244E+02   0.1659524E+02   0.1007670E-03  -0.3996682E+01   0.1007670E-03  -0.3996682E+01   0.3000000E+00
   0.1990244E+02   0.1757143E+02   0.1591919E-03  -0.3798079E+01   0.1591919E-03  -0.3798079E+01   0.3000000E+00
   0.1990244E+02   0.1854762E+02   0.9285235E-04  -0.4032207E+01   0.9285235E-04  -0.4032207E+01   0.3000000E+00
   0.1990244E+02   0.1952381E+02   0.5425584E-04  -0.4265554E+01   0.5425584E-04  -0.4265554E+01   0.3000000E+00
   0.1990244E+02   0.2050000E+02   0.5425584E-04  -0.4265554E+01   0.5425584E-04  -0.4265554E+01   0.3000000E+00
   0.2239024E+02   0.0000000E+00   0.3376452E-04  -0.4471539E+01   0.3376452E-04  -0.4471539E+01   0.3000000E+00
   0.2239024E+02   0.9761905E+00   0.8167195E-04  -0.4087927E+01   0.8167195E-04  -0.4087927E+01   0.3000000E+00
   0.2239024E+02   0.1952381E+01   0.8431928E-04  -0.4074073E+01   0.8431928E-04  -0.4074073E+01   0.3000000E+00
   0.2239024E+02   0.2928571E+01   0.5555706E-04  -0.4255261E+01   0.5555706E-04  -0.4255261E+01   0.3000000E+00
   0.2239024E+02   0.3904762E+01   0.4040326E-04  -0.4393584E+01   0.4040326E-04  -0.4393584E+01   0.3000000E+00
   0.2239024E+02   0.4880952E+01   0.3924447E-04  -0.4406222E+01   0.3924447E-04  -0.4406222E+01   0.3000000E+00
   0.2239024E+02   0.5857143E+01   0.1077050E-04  -0.4967764E+01   0.1077050E-04  -0.4967764E+01   0.3000000E+00
   0.2239024E+02   0.6833333E+01   0.6463756E-05  -0.5189515E+01   0.6463756E-05  -0.5189515E+01   0.3000000E+00
   0.2239024E+02   0.7809524E+01   0.1439399E-04  -0.4841819E+01   0.1439399E-04  -0.4841819E+01   0.3000000E+00
   0.2239024E+02   0.8785714E+01   0.2869752E-04  -0.4542156E+01   0.2869752E-04  -0.4542156E+01   0.3000000E+00
   0.2239024E+02   0.9761905E+01   0.2678416E-04  -0.4572122E+01   0.2678416E-04  -0.4572122E+01   0.3000000E+00
   0.2239024E+02   0.1073810E+02   0.6641121E-07  -0.7177759E+01   0.6641121E-07  -0.7177759E+01   0.3000000E+00
   0.2239024E+02   0.1171429E+02   0.1396377E-07  -0.7854997E+01   0.1396377E-07  -0.7854997E+01   0.3000000E+00
   0.2239024E+02   0.1269048E+02   0.3639261E-07  -0.7438987E+01   0.3639261E-07  -0.7438987E+01   0.3000000E+00
   0.2239024E+02   0.1366667E+02   0.4132906E-07  -0.7383744E+01   0.4132906E-07  -0.7383744E+01   0.3000000E+00
   0.2239024E+02   0.1464286E+02   0.1686812E-03  -0.3772933E+01   0.1686812E-03  -0.3772933E+01   0.3000000E+00
   0.2239024E+02   0.1561905E+02   0.1818733E-03  -0.3740231E+01   0.1818733E-03  -0.3740231E+01   0.3000000E+00
   0.2239024E+02   0.1659524E+02   0.1867948E-03  -0.3728635E+01   0.1867948E-03  -0.3728635E+01   0.3000000E+00
   0.2239024E+02   0.1757143E+02   0.1189390E-03  -0.3924676E+01   0.1189390E-03  -0.3924676E+01   0.3000000E+00
   0.2239024E+02   0.1854762E+02   0.4901422E-04  -0.4309678E+01   0.4901422E-04  -0.4309678E+01   0.3000000E+00
   0.2239024E+02   0.1952381E+02   0.7911564E-04  -0.4101738E+01   0.7911564E-04  -0.4101738E+01   0.3000000E+00
   0.2239024E+02   0.2050000E+02   0.7911564E-04  -0.4101738E+01   0.7911564E-04  -0.4101738E+01   0.3000000E+00
   0.2487805E+02   0.0000000E+00   0.4604921E-04  -0.4336778E+01   0.4604921E-04  -0.4336778E+01   0.3000000E+00
   0.2487805E+02   0.9761905E+00   0.8594526E-04  -0.4065778E+01   0.8594526E-04  -0.4065778E+01   0.3000000E+00
   0.2487805E+02   0.1952381E+01   0.7221231E-04  -0.4141389E+01   0.7221231E-04  -0.4141389E+01   0.3000000E+00
   0.2487805E+02   0.2928571E+01   0.7647092E-04  -0.4116504E+01   0.7647092E-04  -0.4116504E+01   0.3000000E+00
   0.2487805E+02   0.3904762E+01   0.2160469E-04  -0.4665452E+01   0.2160469E-04  -0.4665452E+01   0.3000000E+00
   0.2487805E+02   0.4880952E+01   0.9986264E-05  -0.5000597E+01   0.9986264E-05  -0.5000597E+01   0.3000000E+00
   0.2487805E+02   0.5857143E+01   0.1572435E-04  -0.4803427E+01   0.1572435E-04  -0.4803427E+01   0.3000000E+00
   0.2487805E+02   0.6833333E+01   0.9893822E-05  -0.5004636E+01   0.9893822E-05  -0.5004636E+01   0.3000000E+00
   0.2487805E+02   0.7809524E+01   0.2056541E-04  -0.4686863E+01   0.2056541E-04  -0.4686863E+01   0.3000000E+00
   0.2487805E+02   0.8785714E+01   0.3053308E-04  -0.4515229E+01   0.3053308E-04  -0.4515229E+01   0.3000000E+00
   0.2487805E+02   0.9761905E+01   0.9453741E-05  -0.5024396E+01   0.9453741E-05  -0.5024396E+01   0.3000000E+00
   0.2487805E+02   0.1073810E+02   0.6282580E-07  -0.7201862E+01   0.6282580E-07  -0.7201862E+01   0.3000000E+00
   0.2487805E+02   0.1171429E+02   0.2821534E-07  -0.7549515E+01   0.2821534E-07  -0.7549515E+01   0.3000000E+00
   0.2487805E+02   0.1269048E+02   0.3714265E-07  -0.7430127E+01   0.3714265E-07  -0.7430127E+01   0.3000000E+00
   0.2487805E+02   0.1366667E+02   0.2845335E-07  -0.7545867E+01   0.2845335E-07  -0.7545867E+01   0.3000000E+00
   0.2487805E+02   0.1464286E+02   0.1862725E-03  -0.3729851E+01   0.1862725E-03  -0.3729851E+01   0.3000000E+00
   0.2487805E+02   0.1561905E+02   0.1735578E-03  -0.3760556E+01   0.1735578E-03  -0.3760556E+01   0.3000000E+00
   0.2487805E+02   0.1659524E+02   0.3810043E-03  -0.3419070E+01   0.3810043E-03  -0.3419070E+01   0.3000000E+00
   0.2487805E+02   0.1757143E+02   0.1490394E-03  -0.3826699E+01   0.1490394E-03  -0.3826699E+01   0.3000000E+00
   0.2487805E+02   0.1854762E+02   0.3560943E-04  -0.4448435E+01   0.3560943E-04  -0.4448435E+01   0.3000000E+00
   0.2487805E+02   0.1952381E+02   0.1230894E-03  -0.3909780E+01   0.1230894E-03  -0.3909780E+01   0.3000000E+00
   0.2487805E+02   0.2050000E+02   0.1230894E-03  -0.3909780E+01   0.1230894E-03  -0.3909780E+01   0.3000000E+00
   0.2736585E+02   0.0000000E+00   0.6243403E-04  -0.4204579E+01   0.6243403E-04  -0.4204579E+01   0.3000000E+00
   0.2736585E+02   0.9761905E+00   0.3795156E-04  -0.4420770E+01   0.3795156E-04  -0.4420770E+01   0.3000000E+00
   0.2736585E+02   0.1952381E+01   0.6993810E-04  -0.4155286E+01   0.6993810E-04  -0.4155286E+01   0.3000000E+00
   0.2736585E+02   0.2928571E+01   0.3890452E-04  -0.4410000E+01   0.3890452E-04  -0.4410000E+01   0.3000000E+00
   0.2736585E+02   0.3904762E+01   0.2188739E-04  -0.4659806E+01   0.2188739E-04  -0.4659806E+01   0.3000000E+00
   0.2736585E+02   0.4880952E+01   0.2600296E-04  -0.4584977E+01   0.2600296E-04  -0.4584977E+01   0.3000000E+00
   0.2736585E+02   0.5857143E+01   0.1518048E-04  -0.4818714E+01   0.1518048E-04  -0.4818714E+01   0.3000000E+00
   0.2736585E+02   0.6833333E+01   0.2781041E-04  -0.4555793E+01   0.2781041E-04  -0.4555793E+01   0.3000000E+00
   0.2736585E+02   0.7809524E+01   0.4241112E-04  -0.4372520E+01   0.4241112E-04  -0.4372520E+01   0.3000000E+00
   0.2736585E+02   0.8785714E+01   0.1427644E-04  -0.4845380E+01   0.1427644E-04  -0.4845380E+01   0.3000000E+00
   0.2736585E+02   0.9761905E+01   0.1078559E-04  -0.4967156E+01   0.1078559E-04  -0.4967156E+01   0.3000000E+00
   0.2736585E+02   0.1073810E+02   0.1626606E-06  -0.6788718E+01   0.1626606E-06  -0.6788718E+01   0.3000000E+00
   0.2736585E+02   0.1171429E+02   0.6964186E-07  -0.7157130E+01   0.6964186E-07  -0.7157130E+01   0.3000000E+00
   0.2736585E+02   0.1269048E+02   0.4054716E-07  -0.7392040E+01   0.4054716E-07  -0.7392040E+01   0.3000000E+00
   0.2736585E+02   0.1366667E+02   0.3637806E-07  -0.7439160E+01   0.3637806E-07  -0.7439160E+01   0.3000000E+00
   0.2736585E+02   0.1464286E+02   0.7607430E-04  -0.4118762E+01   0.7607430E-04  -0.4118762E+01   0.3000000E+00
   0.2736585E+02   0.1561905E+02   0.7163692E-04  -0.4144863E+01   0.7163692E-04  -0.4144863E+01   0.3000000E+00
   0.2736585E+02   0.1659524E+02   0.1169926E-03  -0.3931842E+01   0.1169926E-03  -0.3931842E+01   0.3000000E+00
   0.2736585E+02   0.1757143E+02   0.8088356E-04  -0.4092140E+01   0.8088356E-04  -0.4092140E+01   0.3000000E+00
   0.2736585E+02   0.1854762E+02   0.8303902E-04  -0.4080718E+01   0.8303902E-04  -0.4080718E+01   0.3000000E+00
   0.2736585E+02   0.1952381E+02   0.6551706E-04  -0.4183646E+01   0.6551706E-04  -0.4183646E+01   0.3000000E+00
   0.2736585E+02   0.2050000E+02   0.6551706E-04  -0.4183646E+01   0.6551706E-04  -0.4183646E+01   0.3000000E+00