title="2d vectors xz, t=    0.150E+03"
variables="x","z","vx","vz"
zone i=    21, j=    41, T="   0.150E+03"
  0.124390E+01  0.488038E+00  0.657639E-07  0.224359E-08
  0.124390E+01  0.146411E+01  0.885993E-07  0.461898E-08
  0.124390E+01  0.244019E+01  0.397900E-06  0.172331E-07
  0.124390E+01  0.341626E+01  0.503115E-06  0.115837E-07
  0.124390E+01  0.439234E+01  0.337725E-06 -0.177250E-07
  0.124390E+01  0.536842E+01  0.634927E-06 -0.651912E-08
  0.124390E+01  0.634449E+01  0.358160E-06  0.443632E-07
  0.124390E+01  0.732057E+01  0.138961E-06  0.287290E-07
  0.124390E+01  0.829664E+01  0.110217E-06  0.240533E-07
  0.124390E+01  0.927272E+01  0.134897E-06  0.146804E-07
  0.124390E+01  0.102488E+02  0.152603E-06  0.341926E-08
  0.124390E+01  0.112249E+02  0.175285E-08 -0.324976E-10
  0.124390E+01  0.122009E+02  0.738562E-09  0.388977E-09
  0.124390E+01  0.131770E+02  0.141283E-08  0.815617E-09
  0.124390E+01  0.141531E+02  0.664368E-09  0.959455E-09
  0.124390E+01  0.151292E+02  0.867160E-09 -0.829456E-10
  0.124390E+01  0.161052E+02  0.623373E-06 -0.607009E-07
  0.124390E+01  0.170813E+02  0.224386E-06 -0.802716E-08
  0.124390E+01  0.180574E+02  0.311714E-06 -0.738369E-08
  0.124390E+01  0.190335E+02  0.326908E-06 -0.168994E-07
  0.124390E+01  0.200095E+02  0.188144E-06  0.320451E-07
  0.373171E+01  0.487766E+00  0.501697E-07 -0.425475E-08
  0.373171E+01  0.146330E+01  0.901753E-07 -0.814689E-08
  0.373171E+01  0.243883E+01  0.287710E-06  0.202299E-07
  0.373171E+01  0.341436E+01  0.684932E-06  0.740080E-07
  0.373171E+01  0.438989E+01  0.496480E-06  0.558496E-07
  0.373171E+01  0.536542E+01  0.339732E-06  0.800120E-07
  0.373171E+01  0.634095E+01  0.357500E-06  0.147921E-06
  0.373171E+01  0.731648E+01  0.211874E-06  0.109741E-06
  0.373171E+01  0.829201E+01  0.133274E-06  0.460611E-07
  0.373171E+01  0.926755E+01  0.200938E-06  0.304830E-07
  0.373171E+01  0.102431E+02  0.184394E-06  0.950857E-08
  0.373171E+01  0.112186E+02  0.326106E-09  0.490505E-10
  0.373171E+01  0.121941E+02  0.211516E-09  0.151866E-09
  0.373171E+01  0.131697E+02  0.186741E-09  0.214479E-09
  0.373171E+01  0.141452E+02  0.359787E-10  0.152394E-09
  0.373171E+01  0.151207E+02  0.577787E-06 -0.679639E-07
  0.373171E+01  0.160963E+02  0.420739E-06 -0.349967E-07
  0.373171E+01  0.170718E+02  0.183291E-06 -0.207700E-07
  0.373171E+01  0.180473E+02  0.468276E-06 -0.529668E-07
  0.373171E+01  0.190229E+02  0.278926E-06 -0.155929E-07
  0.373171E+01  0.199984E+02  0.265091E-06 -0.232372E-07
  0.621951E+01  0.487498E+00  0.866108E-07 -0.619623E-08
  0.621951E+01  0.146249E+01  0.115515E-06 -0.212186E-07
  0.621951E+01  0.243749E+01  0.191044E-06 -0.447811E-07
  0.621951E+01  0.341249E+01  0.481543E-06 -0.127628E-07
  0.621951E+01  0.438748E+01  0.498139E-06  0.911731E-07
  0.621951E+01  0.536248E+01  0.317137E-06  0.111722E-06
  0.621951E+01  0.633747E+01  0.217895E-06  0.118311E-06
  0.621951E+01  0.731247E+01  0.339553E-06  0.159474E-06
  0.621951E+01  0.828747E+01  0.372244E-06  0.107034E-06
  0.621951E+01  0.926246E+01  0.255328E-06  0.411203E-07
  0.621951E+01  0.102375E+02  0.272110E-06  0.138674E-07
  0.621951E+01  0.112125E+02  0.870841E-10  0.392431E-10
  0.621951E+01  0.121875E+02  0.980290E-10  0.976162E-10
  0.621951E+01  0.131624E+02  0.665117E-10  0.804079E-10
  0.621951E+01  0.141374E+02  0.551298E-10  0.121336E-09
  0.621951E+01  0.151124E+02  0.453936E-06  0.201071E-07
  0.621951E+01  0.160874E+02  0.443066E-06  0.283467E-07
  0.621951E+01  0.170624E+02  0.463311E-06 -0.218951E-07
  0.621951E+01  0.180374E+02  0.230227E-06 -0.119560E-07
  0.621951E+01  0.190124E+02  0.324475E-06  0.181147E-08
  0.621951E+01  0.199874E+02  0.271121E-06 -0.911197E-08
  0.870732E+01  0.487207E+00  0.138993E-06 -0.562420E-08
  0.870732E+01  0.146162E+01  0.235150E-06 -0.208394E-07
  0.870732E+01  0.243604E+01  0.301902E-06 -0.432513E-07
  0.870732E+01  0.341045E+01  0.371872E-06 -0.447872E-07
  0.870732E+01  0.438486E+01  0.283819E-06 -0.204022E-07
  0.870732E+01  0.535928E+01  0.289590E-06  0.242560E-07
  0.870732E+01  0.633369E+01  0.149702E-06  0.236016E-07
  0.870732E+01  0.730811E+01  0.283180E-06  0.828529E-09
  0.870732E+01  0.828252E+01  0.406987E-06  0.551304E-07
  0.870732E+01  0.925693E+01  0.295352E-06  0.590428E-07
  0.870732E+01  0.102313E+02  0.321967E-06  0.218606E-07
  0.870732E+01  0.112058E+02  0.104217E-09  0.144683E-09
  0.870732E+01  0.121802E+02  0.348956E-10  0.709770E-10
  0.870732E+01  0.131546E+02  0.833251E-10  0.133983E-09
  0.870732E+01  0.141290E+02  0.310702E-10  0.124520E-09
  0.870732E+01  0.151034E+02  0.345904E-06  0.139962E-07
  0.870732E+01  0.160778E+02  0.409377E-06  0.987224E-08
  0.870732E+01  0.170522E+02  0.462920E-06  0.670306E-08
  0.870732E+01  0.180267E+02  0.174632E-06  0.669313E-08
  0.870732E+01  0.190011E+02  0.360038E-06 -0.150156E-07
  0.870732E+01  0.199755E+02  0.228476E-06 -0.238489E-07
  0.111951E+02  0.487040E+00  0.196507E-06  0.628713E-08
  0.111951E+02  0.146112E+01  0.319938E-06  0.403171E-09
  0.111951E+02  0.243520E+01  0.418392E-06 -0.337353E-07
  0.111951E+02  0.340928E+01  0.398224E-06 -0.716842E-07
  0.111951E+02  0.438336E+01  0.234074E-06 -0.812115E-07
  0.111951E+02  0.535744E+01  0.164417E-06 -0.675440E-07
  0.111951E+02  0.633152E+01  0.382099E-06 -0.811182E-07
  0.111951E+02  0.730560E+01  0.150063E-06 -0.502044E-07
  0.111951E+02  0.827969E+01  0.112713E-06 -0.100596E-07
  0.111951E+02  0.925377E+01  0.234432E-06  0.244740E-07
  0.111951E+02  0.102278E+02  0.296882E-06  0.154934E-07
  0.111951E+02  0.112019E+02  0.277052E-10  0.442070E-10
  0.111951E+02  0.121760E+02  0.569554E-10  0.149973E-09
  0.111951E+02  0.131501E+02  0.158055E-09  0.184145E-09
  0.111951E+02  0.141242E+02  0.364070E-10  0.107118E-09
  0.111951E+02  0.150982E+02  0.285128E-06 -0.194463E-08
  0.111951E+02  0.160723E+02  0.532514E-06 -0.171558E-07
  0.111951E+02  0.170464E+02  0.292486E-06 -0.170641E-07
  0.111951E+02  0.180205E+02  0.223325E-06 -0.293181E-07
  0.111951E+02  0.189946E+02  0.343198E-06 -0.358317E-07
  0.111951E+02  0.199687E+02  0.167395E-06 -0.188262E-07
  0.136829E+02  0.486917E+00  0.147238E-06  0.116037E-07
  0.136829E+02  0.146075E+01  0.403140E-06  0.190816E-07
  0.136829E+02  0.243458E+01  0.502834E-06  0.359602E-08
  0.136829E+02  0.340842E+01  0.563651E-06 -0.558337E-07
  0.136829E+02  0.438225E+01  0.201515E-06 -0.771742E-07
  0.136829E+02  0.535608E+01  0.119187E-06 -0.665063E-07
  0.136829E+02  0.632992E+01  0.247550E-06 -0.716755E-07
  0.136829E+02  0.730375E+01  0.890413E-07 -0.337986E-07
  0.136829E+02  0.827758E+01  0.615885E-07 -0.287890E-07
  0.136829E+02  0.925142E+01  0.140342E-06 -0.161603E-07
  0.136829E+02  0.102252E+02  0.397328E-06  0.587047E-08
  0.136829E+02  0.111991E+02  0.623009E-10  0.199195E-09
  0.136829E+02  0.121729E+02  0.283866E-10  0.120530E-09
  0.136829E+02  0.131467E+02  0.638892E-10  0.199430E-09
  0.136829E+02  0.141206E+02  0.107685E-09  0.299912E-09
  0.136829E+02  0.150944E+02  0.448567E-06 -0.156409E-07
  0.136829E+02  0.160682E+02  0.408012E-06 -0.889923E-08
  0.136829E+02  0.170421E+02  0.486401E-06 -0.180346E-07
  0.136829E+02  0.180159E+02  0.224285E-06 -0.376375E-07
  0.136829E+02  0.189897E+02  0.215821E-06 -0.279183E-07
  0.136829E+02  0.199636E+02  0.140338E-06 -0.224475E-07
  0.161707E+02  0.486811E+00  0.169595E-06 -0.659880E-08
  0.161707E+02  0.146043E+01  0.439733E-06 -0.184171E-07
  0.161707E+02  0.243406E+01  0.430767E-06  0.147901E-08
  0.161707E+02  0.340768E+01  0.740764E-06  0.820004E-08
  0.161707E+02  0.438130E+01  0.368648E-06 -0.552382E-07
  0.161707E+02  0.535493E+01  0.180712E-06 -0.996231E-07
  0.161707E+02  0.632855E+01  0.118162E-06 -0.743516E-07
  0.161707E+02  0.730217E+01  0.981576E-07 -0.514285E-07
  0.161707E+02  0.827579E+01  0.568905E-07 -0.402277E-07
  0.161707E+02  0.924942E+01  0.117844E-06 -0.453631E-07
  0.161707E+02  0.102230E+02  0.299293E-06 -0.205800E-07
  0.161707E+02  0.111967E+02  0.458291E-10  0.111502E-09
  0.161707E+02  0.121703E+02  0.474944E-10  0.166353E-09
  0.161707E+02  0.131439E+02  0.164018E-10  0.128707E-09
  0.161707E+02  0.141175E+02  0.381106E-10  0.181518E-09
  0.161707E+02  0.150912E+02  0.329247E-06  0.195734E-07
  0.161707E+02  0.160648E+02  0.579420E-06  0.284406E-07
  0.161707E+02  0.170384E+02  0.596568E-06  0.452634E-08
  0.161707E+02  0.180120E+02  0.311531E-06 -0.589334E-08
  0.161707E+02  0.189856E+02  0.245541E-06 -0.147393E-07
  0.161707E+02  0.199593E+02  0.751464E-07 -0.971395E-08
  0.186585E+02  0.486684E+00  0.165452E-06 -0.164724E-07
  0.186585E+02  0.146005E+01  0.412761E-06 -0.234653E-07
  0.186585E+02  0.243342E+01  0.479240E-06 -0.281901E-07
  0.186585E+02  0.340679E+01  0.780152E-06 -0.187158E-07
  0.186585E+02  0.438016E+01  0.438270E-06 -0.129461E-07
  0.186585E+02  0.535352E+01  0.194678E-06 -0.201181E-07
  0.186585E+02  0.632689E+01  0.717593E-07 -0.224900E-07
  0.186585E+02  0.730026E+01  0.130305E-06 -0.413439E-07
  0.186585E+02  0.827363E+01  0.880880E-07 -0.468358E-07
  0.186585E+02  0.924700E+01  0.107394E-06 -0.392552E-07
  0.186585E+02  0.102204E+02  0.223003E-06 -0.134256E-07
  0.186585E+02  0.111937E+02  0.139867E-09  0.351764E-09
  0.186585E+02  0.121671E+02  0.883306E-10  0.278172E-09
  0.186585E+02  0.131405E+02  0.418284E-10  0.221878E-09
  0.186585E+02  0.141138E+02  0.470680E-10  0.260763E-09
  0.186585E+02  0.150872E+02  0.373833E-06 -0.140988E-07
  0.186585E+02  0.160606E+02  0.595233E-06 -0.308009E-07
  0.186585E+02  0.170339E+02  0.441563E-06  0.305013E-08
  0.186585E+02  0.180073E+02  0.339008E-06  0.162647E-07
  0.186585E+02  0.189807E+02  0.269493E-06  0.175412E-08
  0.186585E+02  0.199540E+02  0.160691E-06 -0.732907E-08
  0.211463E+02  0.486611E+00  0.243178E-06 -0.241144E-08
  0.211463E+02  0.145983E+01  0.283263E-06 -0.228090E-07
  0.211463E+02  0.243305E+01  0.587795E-06 -0.894732E-07
  0.211463E+02  0.340628E+01  0.686920E-06 -0.897382E-07
  0.211463E+02  0.437950E+01  0.682484E-06 -0.414365E-08
  0.211463E+02  0.535272E+01  0.183262E-06  0.275509E-09
  0.211463E+02  0.632594E+01  0.155544E-06 -0.110293E-07
  0.211463E+02  0.729916E+01  0.968637E-07  0.122908E-07
  0.211463E+02  0.827238E+01  0.853859E-07  0.131012E-07
  0.211463E+02  0.924560E+01  0.983634E-07  0.146820E-08
  0.211463E+02  0.102188E+02  0.212876E-06 -0.173229E-08
  0.211463E+02  0.111920E+02  0.197414E-09  0.380804E-09
  0.211463E+02  0.121653E+02  0.191064E-09  0.538110E-09
  0.211463E+02  0.131385E+02  0.162738E-09  0.363997E-09
  0.211463E+02  0.141117E+02  0.109085E-09  0.368441E-09
  0.211463E+02  0.150849E+02  0.535836E-06 -0.200089E-07
  0.211463E+02  0.160582E+02  0.605427E-06 -0.299114E-07
  0.211463E+02  0.170314E+02  0.417930E-06 -0.112861E-07
  0.211463E+02  0.180046E+02  0.620411E-06 -0.247377E-07
  0.211463E+02  0.189778E+02  0.345871E-06 -0.295384E-07
  0.211463E+02  0.199510E+02  0.207584E-06 -0.126004E-07
  0.236341E+02  0.486540E+00  0.257734E-06  0.313724E-09
  0.236341E+02  0.145962E+01  0.607826E-06 -0.438215E-07
  0.236341E+02  0.243270E+01  0.652185E-06 -0.592515E-07
  0.236341E+02  0.340578E+01  0.447790E-06 -0.471835E-07
  0.236341E+02  0.437886E+01  0.310997E-06 -0.408383E-07
  0.236341E+02  0.535194E+01  0.294039E-06  0.281197E-07
  0.236341E+02  0.632503E+01  0.915368E-07  0.227700E-07
  0.236341E+02  0.729811E+01  0.606104E-07  0.172640E-07
  0.236341E+02  0.827119E+01  0.128885E-06  0.202711E-07
  0.236341E+02  0.924427E+01  0.233359E-06 -0.681201E-08
  0.236341E+02  0.102173E+02  0.200638E-06 -0.233965E-07
  0.236341E+02  0.111904E+02  0.464578E-09  0.574186E-09
  0.236341E+02  0.121635E+02  0.972041E-10  0.362950E-09
  0.236341E+02  0.131366E+02  0.211652E-09  0.531711E-09
  0.236341E+02  0.141097E+02  0.165315E-09  0.557587E-09
  0.236341E+02  0.150828E+02  0.593533E-06  0.242299E-07
  0.236341E+02  0.160558E+02  0.673515E-06  0.753881E-07
  0.236341E+02  0.170289E+02  0.738692E-06 -0.334232E-08
  0.236341E+02  0.180020E+02  0.492299E-06 -0.496644E-07
  0.236341E+02  0.189751E+02  0.214939E-06  0.650712E-08
  0.236341E+02  0.199482E+02  0.363515E-06  0.876947E-08
  0.261220E+02  0.486460E+00  0.348634E-06 -0.238492E-07
  0.261220E+02  0.145938E+01  0.670399E-06  0.762853E-08
  0.261220E+02  0.243230E+01  0.594950E-06  0.390796E-07
  0.261220E+02  0.340522E+01  0.684877E-06  0.437658E-07
  0.261220E+02  0.437814E+01  0.237257E-06  0.393207E-07
  0.261220E+02  0.535105E+01  0.129319E-06  0.239119E-07
  0.261220E+02  0.632397E+01  0.205052E-06  0.509787E-07
  0.261220E+02  0.729689E+01  0.122216E-06  0.200926E-07
  0.261220E+02  0.826981E+01  0.238393E-06 -0.201102E-07
  0.261220E+02  0.924273E+01  0.335112E-06 -0.467394E-07
  0.261220E+02  0.102156E+02  0.106413E-06 -0.473573E-08
  0.261220E+02  0.111886E+02  0.766664E-09  0.592387E-09
  0.261220E+02  0.121615E+02  0.281345E-09  0.547947E-09
  0.261220E+02  0.131344E+02  0.243173E-09  0.352977E-09
  0.261220E+02  0.141073E+02  0.131775E-09  0.257808E-09
  0.261220E+02  0.150802E+02  0.633787E-06  0.378813E-07
  0.261220E+02  0.160532E+02  0.579455E-06  0.115187E-06
  0.261220E+02  0.170261E+02  0.129469E-05  0.201053E-06
  0.261220E+02  0.179990E+02  0.585431E-06  0.128745E-06
  0.261220E+02  0.189719E+02  0.158756E-06  0.297919E-07
  0.261220E+02  0.199448E+02  0.548294E-06 -0.824601E-08
  0.286098E+02  0.486392E+00  0.535660E-06 -0.103142E-08
  0.286098E+02  0.145918E+01  0.346413E-06  0.598170E-07
  0.286098E+02  0.243196E+01  0.707640E-06  0.189447E-06
  0.286098E+02  0.340474E+01  0.440649E-06  0.129549E-06
  0.286098E+02  0.437753E+01  0.248589E-06  0.946427E-07
  0.286098E+02  0.535031E+01  0.271379E-06  0.667966E-07
  0.286098E+02  0.632310E+01  0.151763E-06  0.330540E-07
  0.286098E+02  0.729588E+01  0.273794E-06  0.263751E-07
  0.286098E+02  0.826867E+01  0.436146E-06 -0.304887E-07
  0.286098E+02  0.924145E+01  0.162356E-06 -0.832457E-08
  0.286098E+02  0.102142E+02  0.127372E-06  0.417712E-08
  0.286098E+02  0.111870E+02  0.184209E-08  0.158185E-08
  0.286098E+02  0.121598E+02  0.708547E-09  0.729816E-09
  0.286098E+02  0.131326E+02  0.365736E-09  0.273265E-09
  0.286098E+02  0.141054E+02  0.252571E-09  0.587848E-10
  0.286098E+02  0.150782E+02  0.409354E-06  0.389455E-07
  0.286098E+02  0.160509E+02  0.416894E-06  0.941247E-07
  0.286098E+02  0.170237E+02  0.743343E-06  0.163333E-06
  0.286098E+02  0.179965E+02  0.540199E-06  0.176521E-06
  0.286098E+02  0.189693E+02  0.580861E-06  0.139812E-06
  0.286098E+02  0.199421E+02  0.491292E-06  0.238885E-07
  0.310976E+02  0.486241E+00  0.426268E-06  0.896152E-07
  0.310976E+02  0.145872E+01  0.275984E-06  0.104542E-06
  0.310976E+02  0.243121E+01  0.252003E-06  0.786195E-07
  0.310976E+02  0.340369E+01  0.459809E-06  0.164365E-06
  0.310976E+02  0.437617E+01  0.457743E-06  0.154736E-06
  0.310976E+02  0.534865E+01  0.368926E-06  0.130457E-06
  0.310976E+02  0.632114E+01  0.244582E-06  0.643670E-07
  0.310976E+02  0.729362E+01  0.325021E-06  0.287904E-07
  0.310976E+02  0.826610E+01  0.405922E-06  0.474683E-07
  0.310976E+02  0.923858E+01  0.201845E-06  0.296693E-07
  0.310976E+02  0.102111E+02  0.178089E-06  0.611169E-08
  0.310976E+02  0.111835E+02  0.550637E-09  0.102813E-08
  0.310976E+02  0.121560E+02  0.196976E-08  0.103153E-08
  0.310976E+02  0.131285E+02  0.961306E-09  0.222853E-09
  0.310976E+02  0.141010E+02  0.130796E-08 -0.200012E-09
  0.310976E+02  0.150735E+02  0.193715E-06 -0.171773E-09
  0.310976E+02  0.160460E+02  0.274278E-06  0.534481E-08
  0.310976E+02  0.170184E+02  0.412848E-06  0.687528E-07
  0.310976E+02  0.179909E+02  0.627206E-06  0.975135E-07
  0.310976E+02  0.189634E+02  0.567507E-06  0.823752E-07
  0.310976E+02  0.199359E+02  0.947606E-06  0.612257E-07
  0.335854E+02  0.485988E+00  0.619358E-07  0.179994E-07
  0.335854E+02  0.145796E+01  0.236390E-06  0.128172E-06
  0.335854E+02  0.242994E+01  0.478050E-06  0.143112E-06
  0.335854E+02  0.340191E+01  0.329042E-06  0.120330E-06
  0.335854E+02  0.437389E+01  0.523489E-06  0.212850E-06
  0.335854E+02  0.534586E+01  0.324086E-06  0.217654E-06
  0.335854E+02  0.631784E+01  0.732919E-06  0.257416E-06
  0.335854E+02  0.728981E+01  0.462326E-06  0.184006E-06
  0.335854E+02  0.826179E+01  0.370649E-06  0.112098E-06
  0.335854E+02  0.923376E+01  0.384514E-06  0.747533E-07
  0.335854E+02  0.102057E+02  0.239720E-06  0.207964E-07
  0.335854E+02  0.111777E+02  0.479173E-09  0.232535E-08
  0.335854E+02  0.121497E+02  0.256214E-08  0.166424E-08
  0.335854E+02  0.131217E+02  0.316050E-08  0.146921E-08
  0.335854E+02  0.140936E+02  0.264803E-08  0.113826E-09
  0.335854E+02  0.150656E+02  0.245826E-06 -0.706913E-08
  0.335854E+02  0.160376E+02  0.235799E-06  0.575553E-08
  0.335854E+02  0.170096E+02  0.137395E-06  0.963683E-08
  0.335854E+02  0.179815E+02  0.848823E-06  0.217912E-07
  0.335854E+02  0.189535E+02  0.903970E-06 -0.161363E-07
  0.335854E+02  0.199255E+02  0.127058E-05 -0.515364E-07
  0.360732E+02  0.485752E+00  0.200501E-07  0.679340E-09
  0.360732E+02  0.145726E+01  0.683330E-07  0.206598E-08
  0.360732E+02  0.242876E+01  0.384609E-06  0.380967E-07
  0.360732E+02  0.340027E+01  0.256786E-06  0.901185E-07
  0.360732E+02  0.437177E+01  0.383346E-06  0.145911E-06
  0.360732E+02  0.534328E+01  0.406897E-06  0.254196E-06
  0.360732E+02  0.631478E+01  0.747465E-06  0.372469E-06
  0.360732E+02  0.728628E+01  0.440519E-06  0.392939E-06
  0.360732E+02  0.825779E+01  0.733533E-06  0.390226E-06
  0.360732E+02  0.922929E+01  0.641553E-06  0.258024E-06
  0.360732E+02  0.102008E+02  0.429210E-06  0.798709E-07
  0.360732E+02  0.111723E+02  0.379652E-09  0.384275E-08
  0.360732E+02  0.121438E+02  0.312641E-08  0.531779E-08
  0.360732E+02  0.131153E+02  0.232843E-08  0.168011E-08
  0.360732E+02  0.140868E+02  0.582952E-08  0.115330E-08
  0.360732E+02  0.150583E+02  0.302797E-06 -0.518950E-08
  0.360732E+02  0.160298E+02  0.198092E-06 -0.102845E-07
  0.360732E+02  0.170013E+02  0.405795E-06 -0.457620E-07
  0.360732E+02  0.179728E+02  0.978962E-06 -0.805899E-07
  0.360732E+02  0.189443E+02  0.124240E-05 -0.999460E-07
  0.360732E+02  0.199158E+02  0.910212E-06 -0.654661E-07
  0.385610E+02  0.485456E+00  0.210460E-07 -0.182676E-08
  0.385610E+02  0.145637E+01  0.656764E-07 -0.445422E-08
  0.385610E+02  0.242728E+01  0.290384E-06  0.271503E-07
  0.385610E+02  0.339819E+01  0.195136E-06  0.501060E-07
  0.385610E+02  0.436911E+01  0.333411E-06  0.704951E-07
  0.385610E+02  0.534002E+01  0.170582E-06  0.908926E-07
  0.385610E+02  0.631093E+01  0.299910E-06  0.157651E-06
  0.385610E+02  0.728185E+01  0.474697E-06  0.254002E-06
  0.385610E+02  0.825276E+01  0.103846E-05  0.235405E-06
  0.385610E+02  0.922367E+01  0.620375E-06  0.123854E-06
  0.385610E+02  0.101946E+02  0.109148E-05  0.875595E-07
  0.385610E+02  0.111655E+02  0.962462E-09  0.792263E-08
  0.385610E+02  0.121364E+02  0.168518E-08  0.468847E-08
  0.385610E+02  0.131073E+02  0.879836E-08  0.669466E-08
  0.385610E+02  0.140782E+02  0.947837E-08  0.519976E-08
  0.385610E+02  0.150491E+02  0.330638E-06  0.699994E-08
  0.385610E+02  0.160201E+02  0.170763E-06 -0.907293E-08
  0.385610E+02  0.169910E+02  0.306888E-06 -0.268481E-07
  0.385610E+02  0.179619E+02  0.589211E-06 -0.301473E-07
  0.385610E+02  0.189328E+02  0.886396E-06  0.137874E-07
  0.385610E+02  0.199037E+02  0.674342E-06  0.777488E-08
  0.410488E+02  0.484878E+00  0.616764E-07 -0.886152E-08
  0.410488E+02  0.145464E+01  0.779803E-07 -0.170191E-07
  0.410488E+02  0.242439E+01  0.140387E-06  0.401204E-08
  0.410488E+02  0.339415E+01  0.236914E-06  0.242374E-07
  0.410488E+02  0.436391E+01  0.260268E-06  0.240079E-07
  0.410488E+02  0.533366E+01  0.901612E-07  0.388470E-07
  0.410488E+02  0.630342E+01  0.103701E-06  0.541483E-07
  0.410488E+02  0.727318E+01  0.301701E-06  0.115443E-06
  0.410488E+02  0.824293E+01  0.123823E-05  0.154720E-06
  0.410488E+02  0.921269E+01  0.844281E-06  0.107361E-06
  0.410488E+02  0.101824E+02  0.818680E-06  0.224813E-07
  0.410488E+02  0.111522E+02  0.547495E-09  0.448559E-08
  0.410488E+02  0.121220E+02  0.223514E-08  0.691148E-08
  0.410488E+02  0.130917E+02  0.631186E-08  0.556664E-08
  0.410488E+02  0.140615E+02  0.588578E-08  0.632508E-08
  0.410488E+02  0.150312E+02  0.295425E-06  0.166577E-07
  0.410488E+02  0.160010E+02  0.251628E-06  0.782604E-08
  0.410488E+02  0.169707E+02  0.360265E-06 -0.122797E-07
  0.410488E+02  0.179405E+02  0.444409E-06  0.821088E-08
  0.410488E+02  0.189103E+02  0.596022E-06  0.332524E-07
  0.410488E+02  0.198800E+02  0.850921E-06  0.241618E-07
  0.435366E+02  0.484217E+00  0.981229E-07 -0.808096E-08
  0.435366E+02  0.145265E+01  0.385135E-07 -0.106095E-07
  0.435366E+02  0.242108E+01  0.469637E-07 -0.127294E-07
  0.435366E+02  0.338952E+01  0.237791E-06 -0.419756E-07
  0.435366E+02  0.435795E+01  0.118493E-06 -0.168411E-07
  0.435366E+02  0.532638E+01  0.973051E-07 -0.163665E-07
  0.435366E+02  0.629482E+01  0.797967E-07 -0.263884E-07
  0.435366E+02  0.726325E+01  0.209079E-06 -0.308430E-07
  0.435366E+02  0.823168E+01  0.868776E-06  0.827216E-07
  0.435366E+02  0.920012E+01  0.628438E-06  0.158233E-06
  0.435366E+02  0.101686E+02  0.153323E-05  0.118529E-06
  0.435366E+02  0.111370E+02  0.104979E-09  0.478962E-08
  0.435366E+02  0.121054E+02  0.487920E-09  0.399054E-08
  0.435366E+02  0.130739E+02  0.363314E-08  0.516278E-08
  0.435366E+02  0.140423E+02  0.225027E-08  0.411928E-08
  0.435366E+02  0.150107E+02  0.191602E-06  0.624662E-09
  0.435366E+02  0.159792E+02  0.324401E-06 -0.193827E-07
  0.435366E+02  0.169476E+02  0.442651E-06 -0.231535E-07
  0.435366E+02  0.179160E+02  0.393147E-06  0.171158E-08
  0.435366E+02  0.188845E+02  0.889793E-06  0.207879E-07
  0.435366E+02  0.198529E+02  0.126075E-05  0.100315E-07
  0.460244E+02  0.483972E+00  0.119774E-06 -0.801566E-08
  0.460244E+02  0.145191E+01  0.675577E-07 -0.282695E-07
  0.460244E+02  0.241986E+01  0.142207E-06 -0.647431E-07
  0.460244E+02  0.338780E+01  0.114201E-06 -0.450535E-07
  0.460244E+02  0.435574E+01  0.148882E-06 -0.551604E-07
  0.460244E+02  0.532369E+01  0.123276E-06 -0.909370E-07
  0.460244E+02  0.629163E+01  0.109857E-06 -0.893346E-07
  0.460244E+02  0.725957E+01  0.185038E-06 -0.780014E-07
  0.460244E+02  0.822752E+01  0.375474E-06 -0.768227E-07
  0.460244E+02  0.919546E+01  0.872887E-06 -0.830628E-07
  0.460244E+02  0.101634E+02  0.171188E-05 -0.832688E-07
  0.460244E+02  0.111313E+02  0.115361E-09  0.117497E-08
  0.460244E+02  0.120993E+02  0.316804E-09  0.200299E-08
  0.460244E+02  0.130672E+02  0.630583E-09  0.214512E-08
  0.460244E+02  0.140352E+02  0.175580E-08  0.454966E-08
  0.460244E+02  0.150031E+02  0.358689E-06 -0.236128E-07
  0.460244E+02  0.159711E+02  0.310911E-06 -0.373295E-07
  0.460244E+02  0.169390E+02  0.411328E-06 -0.416340E-07
  0.460244E+02  0.179069E+02  0.496332E-06 -0.834239E-07
  0.460244E+02  0.188749E+02  0.771525E-06 -0.921091E-07
  0.460244E+02  0.198428E+02  0.128861E-05 -0.378394E-07
  0.485122E+02  0.483762E+00  0.262482E-06 -0.158380E-07
  0.485122E+02  0.145129E+01  0.149764E-06 -0.458527E-07
  0.485122E+02  0.241881E+01  0.143115E-06 -0.548902E-07
  0.485122E+02  0.338633E+01  0.133508E-06 -0.620201E-07
  0.485122E+02  0.435386E+01  0.218660E-06 -0.826909E-07
  0.485122E+02  0.532138E+01  0.935390E-07 -0.588867E-07
  0.485122E+02  0.628890E+01  0.896973E-07 -0.610344E-07
  0.485122E+02  0.725643E+01  0.222661E-06 -0.706425E-07
  0.485122E+02  0.822395E+01  0.358235E-06 -0.106306E-06
  0.485122E+02  0.919147E+01  0.602441E-06 -0.116257E-06
  0.485122E+02  0.101590E+02  0.983787E-06 -0.501125E-07
  0.485122E+02  0.111265E+02  0.858088E-10  0.179112E-08
  0.485122E+02  0.120940E+02 -0.310040E-11  0.273714E-08
  0.485122E+02  0.130616E+02  0.233309E-09  0.249896E-08
  0.485122E+02  0.140291E+02  0.122981E-08  0.328461E-08
  0.485122E+02  0.149966E+02  0.408133E-06 -0.356102E-08
  0.485122E+02  0.159641E+02  0.417498E-06 -0.134312E-08
  0.485122E+02  0.169317E+02  0.455279E-06  0.310703E-08
  0.485122E+02  0.178992E+02  0.579894E-06 -0.128065E-08
  0.485122E+02  0.188667E+02  0.627867E-06 -0.364743E-07
  0.485122E+02  0.198342E+02  0.907349E-06 -0.421093E-07
  0.510000E+02  0.483512E+00  0.558102E-06 -0.448933E-07
  0.510000E+02  0.145054E+01  0.283819E-06 -0.655811E-07
  0.510000E+02  0.241756E+01  0.169070E-06 -0.566085E-07
  0.510000E+02  0.338458E+01  0.178045E-06 -0.632693E-07
  0.510000E+02  0.435161E+01  0.162754E-06 -0.451596E-07
  0.510000E+02  0.531863E+01  0.112109E-06 -0.484007E-07
  0.510000E+02  0.628566E+01  0.758673E-07 -0.592062E-07
  0.510000E+02  0.725268E+01  0.333791E-06 -0.104419E-06
  0.510000E+02  0.821970E+01  0.321806E-06 -0.827147E-07
  0.510000E+02  0.918673E+01  0.388709E-06 -0.519431E-07
  0.510000E+02  0.101538E+02  0.559721E-06 -0.178014E-07
  0.510000E+02  0.111208E+02  0.124827E-09  0.133038E-08
  0.510000E+02  0.120878E+02  0.625711E-10  0.152556E-08
  0.510000E+02  0.130548E+02  0.871643E-10  0.946684E-09
  0.510000E+02  0.140218E+02  0.228625E-09  0.112573E-08
  0.510000E+02  0.149889E+02  0.376111E-06  0.144701E-07
  0.510000E+02  0.159559E+02  0.220489E-06  0.337764E-07
  0.510000E+02  0.169229E+02  0.378792E-06  0.449786E-07
  0.510000E+02  0.178899E+02  0.474353E-06  0.282457E-07
  0.510000E+02  0.188570E+02  0.739669E-06 -0.195882E-07
  0.510000E+02  0.198240E+02  0.710957E-06 -0.358547E-07
  0.534878E+02  0.483255E+00  0.599996E-06 -0.294469E-08
  0.534878E+02  0.144976E+01  0.157164E-06 -0.117622E-08
  0.534878E+02  0.241627E+01  0.259844E-06 -0.854248E-08
  0.534878E+02  0.338278E+01  0.173074E-06 -0.185209E-07
  0.534878E+02  0.434929E+01  0.166470E-06 -0.227615E-07
  0.534878E+02  0.531580E+01  0.227436E-06 -0.465049E-07
  0.534878E+02  0.628231E+01  0.173266E-06 -0.101181E-06
  0.534878E+02  0.724882E+01  0.267713E-06 -0.111805E-06
  0.534878E+02  0.821533E+01  0.238884E-06 -0.603503E-07
  0.534878E+02  0.918184E+01  0.262483E-06 -0.349719E-07
  0.534878E+02  0.101484E+02  0.427417E-06 -0.804729E-08
  0.534878E+02  0.111149E+02  0.736230E-09  0.342379E-08
  0.534878E+02  0.120814E+02  0.639824E-09  0.215002E-08
  0.534878E+02  0.130479E+02  0.816559E-09  0.214394E-08
  0.534878E+02  0.140144E+02  0.424998E-09  0.157612E-08
  0.534878E+02  0.149809E+02  0.225828E-06  0.922325E-08
  0.534878E+02  0.159474E+02  0.130317E-06  0.957155E-08
  0.534878E+02  0.169139E+02  0.249376E-06 -0.242161E-08
  0.534878E+02  0.178804E+02  0.519574E-06 -0.436770E-07
  0.534878E+02  0.188469E+02  0.700352E-06 -0.751285E-07
  0.534878E+02  0.198134E+02  0.569504E-06 -0.293481E-07
  0.559756E+02  0.483109E+00  0.705664E-06 -0.173560E-07
  0.559756E+02  0.144933E+01  0.245499E-06 -0.379961E-07
  0.559756E+02  0.241554E+01  0.236764E-06 -0.152200E-07
  0.559756E+02  0.338176E+01  0.104479E-06  0.142849E-08
  0.559756E+02  0.434798E+01  0.177816E-06  0.971075E-08
  0.559756E+02  0.531419E+01  0.292872E-06  0.954021E-08
  0.559756E+02  0.628041E+01  0.443578E-06 -0.293771E-07
  0.559756E+02  0.724663E+01  0.162999E-06 -0.503137E-07
  0.559756E+02  0.821285E+01  0.206619E-06 -0.438368E-07
  0.559756E+02  0.917906E+01  0.200817E-06 -0.331718E-07
  0.559756E+02  0.101453E+02  0.356038E-06 -0.223009E-07
  0.559756E+02  0.111115E+02  0.233714E-09  0.215666E-08
  0.559756E+02  0.120777E+02  0.109651E-08  0.350238E-08
  0.559756E+02  0.130439E+02  0.242127E-08  0.439294E-08
  0.559756E+02  0.140102E+02  0.115013E-08  0.403157E-08
  0.559756E+02  0.149764E+02  0.201190E-06 -0.218212E-08
  0.559756E+02  0.159426E+02  0.146725E-06 -0.563480E-08
  0.559756E+02  0.169088E+02  0.321463E-06 -0.366726E-07
  0.559756E+02  0.178750E+02  0.616632E-06 -0.737362E-07
  0.559756E+02  0.188412E+02  0.357055E-06 -0.181197E-07
  0.559756E+02  0.198075E+02  0.392642E-06 -0.111701E-07
  0.584634E+02  0.482794E+00  0.946579E-06  0.502120E-07
  0.584634E+02  0.144838E+01  0.169929E-06  0.437830E-07
  0.584634E+02  0.241397E+01  0.179281E-06  0.433498E-07
  0.584634E+02  0.337956E+01  0.195988E-06  0.485105E-07
  0.584634E+02  0.434515E+01  0.157028E-06  0.418343E-07
  0.584634E+02  0.531074E+01  0.307178E-06  0.439555E-07
  0.584634E+02  0.627633E+01  0.377523E-06  0.532755E-07
  0.584634E+02  0.724192E+01  0.286859E-06  0.440313E-07
  0.584634E+02  0.820751E+01  0.295479E-06 -0.152036E-07
  0.584634E+02  0.917309E+01  0.321314E-06 -0.557024E-07
  0.584634E+02  0.101387E+02  0.214406E-06 -0.196401E-07
  0.584634E+02  0.111043E+02  0.844082E-10  0.160530E-08
  0.584634E+02  0.120699E+02  0.349955E-09  0.133435E-08
  0.584634E+02  0.130354E+02  0.143251E-08  0.399569E-08
  0.584634E+02  0.140010E+02  0.128482E-08  0.476916E-08
  0.584634E+02  0.149666E+02  0.261581E-06  0.172143E-07
  0.584634E+02  0.159322E+02  0.205331E-06  0.429278E-09
  0.584634E+02  0.168978E+02  0.635569E-06 -0.232661E-07
  0.584634E+02  0.178634E+02  0.425699E-06  0.392654E-07
  0.584634E+02  0.188290E+02  0.511203E-06  0.388830E-07
  0.584634E+02  0.197946E+02  0.528102E-06  0.138507E-09
  0.609512E+02  0.482470E+00  0.407373E-06  0.563651E-08
  0.609512E+02  0.144741E+01  0.349788E-06  0.516854E-07
  0.609512E+02  0.241235E+01  0.157239E-06  0.292208E-07
  0.609512E+02  0.337729E+01  0.181453E-06  0.261010E-07
  0.609512E+02  0.434223E+01  0.149525E-06  0.234295E-07
  0.609512E+02  0.530717E+01  0.285405E-06  0.220031E-07
  0.609512E+02  0.627211E+01  0.364898E-06  0.192278E-07
  0.609512E+02  0.723705E+01  0.340629E-06  0.454266E-08
  0.609512E+02  0.820199E+01  0.465001E-06 -0.854336E-09
  0.609512E+02  0.916693E+01  0.209283E-06  0.239031E-08
  0.609512E+02  0.101319E+02  0.178375E-06  0.650252E-10
  0.609512E+02  0.110968E+02  0.432577E-10  0.221145E-08
  0.609512E+02  0.120617E+02  0.574550E-09  0.477571E-08
  0.609512E+02  0.130267E+02  0.116136E-08  0.467466E-08
  0.609512E+02  0.139916E+02  0.118488E-08  0.397230E-08
  0.609512E+02  0.149566E+02  0.228298E-06  0.210624E-07
  0.609512E+02  0.159215E+02  0.824620E-06  0.230321E-07
  0.609512E+02  0.168864E+02  0.369938E-06  0.473005E-07
  0.609512E+02  0.178514E+02  0.544839E-06  0.106026E-06
  0.609512E+02  0.188163E+02  0.919235E-06  0.851635E-07