title="2d vectors xy, t=    0.150E+03"
variables="x","y","vx","vy"
zone i=    41, j=    41, T="   0.150E+03"
  0.124390E+01  0.124390E+01  0.657639E-07  0.259859E-08
  0.124390E+01  0.373171E+01  0.166258E-06  0.137182E-07
  0.124390E+01  0.621951E+01  0.396644E-06  0.506840E-07
  0.124390E+01  0.870732E+01  0.287682E-06  0.348334E-07
  0.124390E+01  0.111951E+02  0.310336E-06  0.186574E-07
  0.124390E+01  0.136829E+02  0.204850E-06  0.297715E-07
  0.124390E+01  0.161707E+02  0.139041E-06  0.206166E-07
  0.124390E+01  0.186585E+02  0.981052E-07  0.867735E-08
  0.124390E+01  0.211463E+02  0.473407E-07  0.201866E-08
  0.124390E+01  0.236341E+02  0.451202E-07 -0.282831E-08
  0.124390E+01  0.261220E+02  0.347333E-07 -0.748682E-08
  0.124390E+01  0.286098E+02  0.137786E-06 -0.124528E-07
  0.124390E+01  0.310976E+02  0.257182E-06 -0.105199E-07
  0.124390E+01  0.335854E+02  0.418834E-06 -0.323696E-07
  0.124390E+01  0.360732E+02  0.550166E-06 -0.112370E-07
  0.124390E+01  0.385610E+02  0.283856E-06  0.338255E-07
  0.124390E+01  0.410488E+02  0.320207E-06  0.572870E-07
  0.124390E+01  0.435366E+02  0.191169E-06  0.200165E-07
  0.124390E+01  0.460244E+02  0.508633E-06 -0.748542E-08
  0.124390E+01  0.485122E+02  0.308856E-06 -0.163638E-07
  0.124390E+01  0.510000E+02  0.245868E-06 -0.930450E-08
  0.124390E+01  0.534878E+02  0.231976E-06  0.502933E-08
  0.124390E+01  0.559756E+02  0.196311E-06 -0.110548E-07
  0.124390E+01  0.584634E+02  0.420229E-06  0.111789E-07
  0.124390E+01  0.609512E+02  0.295307E-06  0.251362E-07
  0.124390E+01  0.634390E+02  0.554074E-06  0.134603E-07
  0.124390E+01  0.659268E+02  0.105403E-05  0.862554E-07
  0.124390E+01  0.684146E+02  0.503352E-06  0.182131E-07
  0.124390E+01  0.709024E+02  0.104874E-05 -0.185046E-07
  0.124390E+01  0.733902E+02  0.120098E-05  0.676682E-08
  0.124390E+01  0.758780E+02  0.885546E-06  0.291205E-08
  0.124390E+01  0.783659E+02  0.328757E-06  0.134055E-07
  0.124390E+01  0.808537E+02  0.242935E-06 -0.582370E-08
  0.124390E+01  0.833415E+02  0.356900E-06 -0.151139E-07
  0.124390E+01  0.858293E+02  0.468423E-06  0.835017E-08
  0.124390E+01  0.883171E+02  0.414641E-06  0.250717E-07
  0.124390E+01  0.908049E+02  0.766602E-06  0.328866E-07
  0.124390E+01  0.932927E+02  0.430729E-06 -0.169632E-09
  0.124390E+01  0.957805E+02  0.115558E-06 -0.348432E-09
  0.124390E+01  0.982683E+02  0.464292E-07  0.228088E-08
  0.124390E+01  0.100756E+03  0.377173E-07  0.144462E-07
  0.373171E+01  0.124390E+01  0.501697E-07  0.224818E-09
  0.373171E+01  0.373171E+01  0.197164E-06  0.353598E-07
  0.373171E+01  0.621951E+01  0.425357E-06  0.109499E-06
  0.373171E+01  0.870732E+01  0.302084E-06  0.115203E-06
  0.373171E+01  0.111951E+02  0.215153E-06  0.664072E-07
  0.373171E+01  0.136829E+02  0.167336E-06  0.340980E-07
  0.373171E+01  0.161707E+02  0.186084E-06  0.367879E-07
  0.373171E+01  0.186585E+02  0.107704E-06  0.246834E-07
  0.373171E+01  0.211463E+02  0.513510E-07  0.360851E-08
  0.373171E+01  0.236341E+02  0.558064E-07 -0.533355E-08
  0.373171E+01  0.261220E+02  0.411942E-07 -0.122675E-07
  0.373171E+01  0.286098E+02  0.687771E-07 -0.135520E-07
  0.373171E+01  0.310976E+02  0.306331E-06 -0.386826E-07
  0.373171E+01  0.335854E+02  0.262518E-06 -0.419972E-07
  0.373171E+01  0.360732E+02  0.504980E-06 -0.102328E-07
  0.373171E+01  0.385610E+02  0.323906E-06  0.710382E-07
  0.373171E+01  0.410488E+02  0.301762E-06  0.714934E-07
  0.373171E+01  0.435366E+02  0.344572E-06  0.495072E-07
  0.373171E+01  0.460244E+02  0.798371E-06 -0.270845E-07
  0.373171E+01  0.485122E+02  0.409619E-06  0.218112E-08
  0.373171E+01  0.510000E+02  0.180851E-06  0.173326E-07
  0.373171E+01  0.534878E+02  0.216248E-06  0.198774E-07
  0.373171E+01  0.559756E+02  0.300520E-06 -0.223922E-07
  0.373171E+01  0.584634E+02  0.192242E-06 -0.113128E-07
  0.373171E+01  0.609512E+02  0.348680E-06  0.317137E-07
  0.373171E+01  0.634390E+02  0.522498E-06  0.376342E-07
  0.373171E+01  0.659268E+02  0.503334E-06  0.839313E-07
  0.373171E+01  0.684146E+02  0.931870E-06  0.112183E-06
  0.373171E+01  0.709024E+02  0.563463E-06  0.276876E-07
  0.373171E+01  0.733902E+02  0.985694E-06  0.364309E-07
  0.373171E+01  0.758780E+02  0.814858E-06  0.155137E-07
  0.373171E+01  0.783659E+02  0.384029E-06  0.480524E-07
  0.373171E+01  0.808537E+02  0.420777E-06  0.101936E-07
  0.373171E+01  0.833415E+02  0.335690E-06 -0.283563E-07
  0.373171E+01  0.858293E+02  0.464792E-06  0.137166E-07
  0.373171E+01  0.883171E+02  0.380631E-06  0.536103E-07
  0.373171E+01  0.908049E+02  0.717097E-06  0.586318E-07
  0.373171E+01  0.932927E+02  0.684622E-06  0.268695E-07
  0.373171E+01  0.957805E+02  0.220772E-06  0.469588E-08
  0.373171E+01  0.982683E+02  0.188342E-06 -0.375802E-08
  0.373171E+01  0.100756E+03  0.484392E-07 -0.568176E-08
  0.621951E+01  0.124390E+01  0.866108E-07 -0.786498E-08
  0.621951E+01  0.373171E+01  0.267326E-06  0.125815E-07
  0.621951E+01  0.621951E+01  0.619331E-06  0.111989E-06
  0.621951E+01  0.870732E+01  0.238038E-06  0.635344E-07
  0.621951E+01  0.111951E+02  0.298679E-06  0.714091E-07
  0.621951E+01  0.136829E+02  0.220663E-06  0.504499E-07
  0.621951E+01  0.161707E+02  0.118487E-06  0.266320E-07
  0.621951E+01  0.186585E+02  0.576658E-07  0.869027E-08
  0.621951E+01  0.211463E+02  0.520846E-07 -0.343901E-08
  0.621951E+01  0.236341E+02  0.545979E-07 -0.890857E-08
  0.621951E+01  0.261220E+02  0.470205E-07 -0.856492E-08
  0.621951E+01  0.286098E+02  0.100070E-06 -0.337240E-07
  0.621951E+01  0.310976E+02  0.438642E-06 -0.116789E-06
  0.621951E+01  0.335854E+02  0.309239E-06 -0.589026E-07
  0.621951E+01  0.360732E+02  0.343194E-06 -0.123603E-07
  0.621951E+01  0.385610E+02  0.349557E-06  0.293078E-07
  0.621951E+01  0.410488E+02  0.535403E-06  0.571637E-07
  0.621951E+01  0.435366E+02  0.630591E-06  0.611577E-07
  0.621951E+01  0.460244E+02  0.465385E-06  0.641354E-07
  0.621951E+01  0.485122E+02  0.419699E-06  0.119677E-06
  0.621951E+01  0.510000E+02  0.165932E-06  0.639178E-07
  0.621951E+01  0.534878E+02  0.228168E-06  0.359679E-07
  0.621951E+01  0.559756E+02  0.289425E-06 -0.193184E-07
  0.621951E+01  0.584634E+02  0.247637E-06 -0.544750E-07
  0.621951E+01  0.609512E+02  0.306773E-06 -0.269949E-07
  0.621951E+01  0.634390E+02  0.358205E-06  0.227835E-07
  0.621951E+01  0.659268E+02  0.346859E-06  0.609964E-07
  0.621951E+01  0.684146E+02  0.597949E-06  0.978646E-07
  0.621951E+01  0.709024E+02  0.702942E-06  0.911248E-07
  0.621951E+01  0.733902E+02  0.101802E-05  0.618493E-07
  0.621951E+01  0.758780E+02  0.612978E-06  0.830741E-07
  0.621951E+01  0.783659E+02  0.398972E-06  0.545105E-07
  0.621951E+01  0.808537E+02  0.693570E-06  0.239098E-07
  0.621951E+01  0.833415E+02  0.471195E-06  0.495362E-07
  0.621951E+01  0.858293E+02  0.283704E-06  0.216468E-07
  0.621951E+01  0.883171E+02  0.498084E-06  0.260353E-07
  0.621951E+01  0.908049E+02  0.109555E-05  0.596079E-07
  0.621951E+01  0.932927E+02  0.909656E-06  0.773697E-07
  0.621951E+01  0.957805E+02  0.736888E-06  0.501068E-07
  0.621951E+01  0.982683E+02  0.227687E-06 -0.106047E-07
  0.621951E+01  0.100756E+03  0.926820E-07  0.125686E-08
  0.870732E+01  0.124390E+01  0.138993E-06 -0.125792E-07
  0.870732E+01  0.373171E+01  0.296312E-06 -0.157180E-07
  0.870732E+01  0.621951E+01  0.444158E-06  0.456112E-07
  0.870732E+01  0.870732E+01  0.465393E-06  0.844444E-07
  0.870732E+01  0.111951E+02  0.253254E-06  0.185632E-07
  0.870732E+01  0.136829E+02  0.182624E-06  0.435100E-08
  0.870732E+01  0.161707E+02  0.123126E-06  0.164100E-07
  0.870732E+01  0.186585E+02  0.751834E-07  0.476885E-08
  0.870732E+01  0.211463E+02  0.643725E-07 -0.136607E-07
  0.870732E+01  0.236341E+02  0.497972E-07 -0.223813E-07
  0.870732E+01  0.261220E+02  0.130349E-06 -0.229054E-07
  0.870732E+01  0.286098E+02  0.206526E-06 -0.601394E-07
  0.870732E+01  0.310976E+02  0.391686E-06 -0.976229E-07
  0.870732E+01  0.335854E+02  0.455691E-06 -0.115934E-06
  0.870732E+01  0.360732E+02  0.522661E-06 -0.587014E-07
  0.870732E+01  0.385610E+02  0.565299E-06 -0.683095E-07
  0.870732E+01  0.410488E+02  0.508233E-06 -0.137929E-07
  0.870732E+01  0.435366E+02  0.283380E-06  0.112125E-07
  0.870732E+01  0.460244E+02  0.488751E-06  0.871798E-07
  0.870732E+01  0.485122E+02  0.177571E-06  0.816656E-07
  0.870732E+01  0.510000E+02  0.162944E-06  0.617846E-07
  0.870732E+01  0.534878E+02  0.260791E-06  0.454082E-07
  0.870732E+01  0.559756E+02  0.150932E-06  0.353822E-08
  0.870732E+01  0.584634E+02  0.312529E-06 -0.558144E-07
  0.870732E+01  0.609512E+02  0.145176E-06 -0.437166E-07
  0.870732E+01  0.634390E+02  0.516753E-06  0.519048E-07
  0.870732E+01  0.659268E+02  0.327750E-06  0.748386E-07
  0.870732E+01  0.684146E+02  0.530056E-06  0.130872E-06
  0.870732E+01  0.709024E+02  0.598444E-06  0.676623E-07
  0.870732E+01  0.733902E+02  0.857723E-06  0.142898E-07
  0.870732E+01  0.758780E+02  0.595859E-06  0.959200E-07
  0.870732E+01  0.783659E+02  0.823892E-06  0.900796E-07
  0.870732E+01  0.808537E+02  0.422068E-06  0.953260E-08
  0.870732E+01  0.833415E+02  0.322658E-06  0.815211E-07
  0.870732E+01  0.858293E+02  0.701149E-06  0.123152E-06
  0.870732E+01  0.883171E+02  0.857728E-06 -0.331315E-08
  0.870732E+01  0.908049E+02  0.108717E-05 -0.636233E-07
  0.870732E+01  0.932927E+02  0.127050E-05  0.188970E-07
  0.870732E+01  0.957805E+02  0.829510E-06  0.779083E-07
  0.870732E+01  0.982683E+02  0.269007E-06  0.168198E-07
  0.870732E+01  0.100756E+03  0.124424E-06  0.723043E-08
  0.111951E+02  0.124390E+01  0.196507E-06 -0.157491E-07
  0.111951E+02  0.373171E+01  0.255867E-06 -0.167480E-07
  0.111951E+02  0.621951E+01  0.252744E-06  0.899410E-08
  0.111951E+02  0.870732E+01  0.344026E-06  0.237838E-07
  0.111951E+02  0.111951E+02  0.409966E-06 -0.198516E-09
  0.111951E+02  0.136829E+02  0.173733E-06 -0.294726E-07
  0.111951E+02  0.161707E+02  0.889135E-07 -0.152168E-07
  0.111951E+02  0.186585E+02  0.110996E-06 -0.167881E-07
  0.111951E+02  0.211463E+02  0.881711E-07 -0.214930E-07
  0.111951E+02  0.236341E+02  0.567142E-07 -0.252053E-07
  0.111951E+02  0.261220E+02  0.112275E-06 -0.376077E-07
  0.111951E+02  0.286098E+02  0.378708E-06 -0.931356E-07
  0.111951E+02  0.310976E+02  0.634748E-06 -0.143602E-06
  0.111951E+02  0.335854E+02  0.396871E-06 -0.127464E-06
  0.111951E+02  0.360732E+02  0.499767E-06 -0.753923E-07
  0.111951E+02  0.385610E+02  0.549476E-06 -0.372673E-07
  0.111951E+02  0.410488E+02  0.426244E-06 -0.187496E-07
  0.111951E+02  0.435366E+02  0.244886E-06  0.682384E-08
  0.111951E+02  0.460244E+02  0.148433E-06  0.198373E-07
  0.111951E+02  0.485122E+02  0.168325E-06  0.473039E-07
  0.111951E+02  0.510000E+02  0.276093E-06  0.386792E-07
  0.111951E+02  0.534878E+02  0.246200E-06  0.457842E-07
  0.111951E+02  0.559756E+02  0.114875E-06  0.241682E-07
  0.111951E+02  0.584634E+02  0.202299E-06  0.874806E-08
  0.111951E+02  0.609512E+02  0.171045E-06 -0.141317E-07
  0.111951E+02  0.634390E+02  0.256031E-06 -0.111352E-08
  0.111951E+02  0.659268E+02  0.623253E-06  0.110720E-06
  0.111951E+02  0.684146E+02  0.299007E-06  0.710115E-07
  0.111951E+02  0.709024E+02  0.550993E-06  0.640706E-07
  0.111951E+02  0.733902E+02  0.549621E-06  0.259009E-08
  0.111951E+02  0.758780E+02  0.759620E-06 -0.638841E-08
  0.111951E+02  0.783659E+02  0.996343E-06  0.105094E-06
  0.111951E+02  0.808537E+02  0.588906E-06  0.993990E-07
  0.111951E+02  0.833415E+02  0.288614E-06  0.642045E-07
  0.111951E+02  0.858293E+02  0.696461E-06  0.120959E-06
  0.111951E+02  0.883171E+02  0.120235E-05  0.133550E-07
  0.111951E+02  0.908049E+02  0.167615E-05 -0.339748E-06
  0.111951E+02  0.932927E+02  0.789138E-06 -0.559469E-07
  0.111951E+02  0.957805E+02  0.874464E-06  0.171529E-06
  0.111951E+02  0.982683E+02  0.223996E-06  0.493789E-07
  0.111951E+02  0.100756E+03  0.113435E-06  0.992834E-08
  0.136829E+02  0.124390E+01  0.147238E-06 -0.654398E-08
  0.136829E+02  0.373171E+01  0.126657E-06 -0.116023E-07
  0.136829E+02  0.621951E+01  0.369463E-06 -0.433236E-07
  0.136829E+02  0.870732E+01  0.541750E-06 -0.102522E-06
  0.136829E+02  0.111951E+02  0.615921E-06 -0.121582E-06
  0.136829E+02  0.136829E+02  0.182260E-06 -0.454188E-07
  0.136829E+02  0.161707E+02  0.120338E-06 -0.436576E-07
  0.136829E+02  0.186585E+02  0.211963E-06 -0.580889E-07
  0.136829E+02  0.211463E+02  0.126286E-06 -0.352498E-07
  0.136829E+02  0.236341E+02  0.859757E-07 -0.242048E-07
  0.136829E+02  0.261220E+02  0.248524E-06 -0.902562E-07
  0.136829E+02  0.286098E+02  0.471909E-06 -0.179189E-06
  0.136829E+02  0.310976E+02  0.667979E-06 -0.187360E-06
  0.136829E+02  0.335854E+02  0.454260E-06 -0.922195E-07
  0.136829E+02  0.360732E+02  0.279681E-06 -0.437360E-07
  0.136829E+02  0.385610E+02  0.555328E-06 -0.392449E-07
  0.136829E+02  0.410488E+02  0.233397E-06  0.399615E-08
  0.136829E+02  0.435366E+02  0.200766E-06  0.117604E-07
  0.136829E+02  0.460244E+02  0.170518E-06  0.177465E-07
  0.136829E+02  0.485122E+02  0.179870E-06  0.156503E-08
  0.136829E+02  0.510000E+02  0.328414E-06  0.309933E-07
  0.136829E+02  0.534878E+02  0.263531E-06  0.793652E-07
  0.136829E+02  0.559756E+02  0.215836E-06  0.617247E-07
  0.136829E+02  0.584634E+02  0.275489E-06  0.600881E-07
  0.136829E+02  0.609512E+02  0.165683E-06  0.298598E-07
  0.136829E+02  0.634390E+02  0.302331E-06  0.224153E-07
  0.136829E+02  0.659268E+02  0.332568E-06  0.331083E-07
  0.136829E+02  0.684146E+02  0.269372E-06  0.316545E-07
  0.136829E+02  0.709024E+02  0.100924E-05  0.304310E-07
  0.136829E+02  0.733902E+02  0.102377E-05 -0.339633E-07
  0.136829E+02  0.758780E+02  0.439443E-06 -0.556098E-07
  0.136829E+02  0.783659E+02  0.880800E-06 -0.117482E-07
  0.136829E+02  0.808537E+02  0.652772E-06  0.129594E-06
  0.136829E+02  0.833415E+02  0.586043E-06  0.936690E-07
  0.136829E+02  0.858293E+02  0.750340E-06  0.228402E-07
  0.136829E+02  0.883171E+02  0.187459E-05 -0.562178E-07
  0.136829E+02  0.908049E+02  0.116090E-05 -0.825617E-07
  0.136829E+02  0.932927E+02  0.653033E-06 -0.372444E-07
  0.136829E+02  0.957805E+02  0.588420E-06  0.642437E-07
  0.136829E+02  0.982683E+02  0.290533E-06  0.106377E-06
  0.136829E+02  0.100756E+03  0.157099E-06  0.258582E-07
  0.161707E+02  0.124390E+01  0.169595E-06  0.198786E-08
  0.161707E+02  0.373171E+01  0.164424E-06 -0.337589E-07
  0.161707E+02  0.621951E+01  0.409260E-06 -0.142848E-06
  0.161707E+02  0.870732E+01  0.452465E-06 -0.120003E-06
  0.161707E+02  0.111951E+02  0.508387E-06 -0.841731E-07
  0.161707E+02  0.136829E+02  0.369202E-06 -0.319877E-07
  0.161707E+02  0.161707E+02  0.300389E-06 -0.586130E-07
  0.161707E+02  0.186585E+02  0.346906E-06 -0.509010E-07
  0.161707E+02  0.211463E+02  0.309832E-06 -0.311645E-07
  0.161707E+02  0.236341E+02  0.132140E-06 -0.404974E-07
  0.161707E+02  0.261220E+02  0.569723E-06 -0.189285E-06
  0.161707E+02  0.286098E+02  0.555725E-06 -0.204454E-06
  0.161707E+02  0.310976E+02  0.456680E-06 -0.863266E-07
  0.161707E+02  0.335854E+02  0.254848E-06 -0.516886E-07
  0.161707E+02  0.360732E+02  0.285674E-06 -0.601533E-07
  0.161707E+02  0.385610E+02  0.362692E-06  0.360517E-07
  0.161707E+02  0.410488E+02  0.285024E-06  0.461349E-07
  0.161707E+02  0.435366E+02  0.214060E-06  0.217938E-08
  0.161707E+02  0.460244E+02  0.126452E-06 -0.896883E-08
  0.161707E+02  0.485122E+02  0.300140E-06 -0.164243E-07
  0.161707E+02  0.510000E+02  0.197842E-06  0.138975E-07
  0.161707E+02  0.534878E+02  0.212657E-06  0.496673E-07
  0.161707E+02  0.559756E+02  0.212600E-06  0.514394E-07
  0.161707E+02  0.584634E+02  0.163663E-06  0.460078E-07
  0.161707E+02  0.609512E+02  0.274204E-06  0.741759E-07
  0.161707E+02  0.634390E+02  0.310082E-06  0.771013E-07
  0.161707E+02  0.659268E+02  0.513408E-06  0.360001E-07
  0.161707E+02  0.684146E+02  0.377065E-06 -0.182348E-07
  0.161707E+02  0.709024E+02  0.167553E-05 -0.474725E-07
  0.161707E+02  0.733902E+02  0.126545E-05 -0.410780E-07
  0.161707E+02  0.758780E+02  0.820168E-06 -0.127470E-06
  0.161707E+02  0.783659E+02  0.653745E-06 -0.922967E-07
  0.161707E+02  0.808537E+02  0.555530E-06  0.424795E-07
  0.161707E+02  0.833415E+02  0.654136E-06  0.941305E-07
  0.161707E+02  0.858293E+02  0.109388E-05 -0.600133E-08
  0.161707E+02  0.883171E+02  0.202962E-05 -0.657480E-07
  0.161707E+02  0.908049E+02  0.107468E-05 -0.600903E-07
  0.161707E+02  0.932927E+02  0.723143E-06 -0.477601E-07
  0.161707E+02  0.957805E+02  0.317073E-06  0.101795E-07
  0.161707E+02  0.982683E+02  0.243692E-06  0.232580E-07
  0.161707E+02  0.100756E+03  0.339105E-06  0.349593E-07
  0.186585E+02  0.124390E+01  0.165452E-06  0.154247E-07
  0.186585E+02  0.373171E+01  0.370760E-06 -0.309060E-07
  0.186585E+02  0.621951E+01  0.300445E-06 -0.910951E-07
  0.186585E+02  0.870732E+01  0.402768E-06 -0.107284E-06
  0.186585E+02  0.111951E+02  0.491524E-06 -0.390060E-07
  0.186585E+02  0.136829E+02  0.326230E-06  0.215384E-07
  0.186585E+02  0.161707E+02  0.511713E-06  0.777564E-08
  0.186585E+02  0.186585E+02  0.286672E-06  0.140138E-07
  0.186585E+02  0.211463E+02  0.517973E-06  0.182008E-07
  0.186585E+02  0.236341E+02  0.249175E-06 -0.660381E-07
  0.186585E+02  0.261220E+02  0.646197E-06 -0.120917E-06
  0.186585E+02  0.286098E+02  0.478800E-06 -0.616632E-07
  0.186585E+02  0.310976E+02  0.541575E-06 -0.614395E-07
  0.186585E+02  0.335854E+02  0.340877E-06 -0.767885E-07
  0.186585E+02  0.360732E+02  0.143949E-06 -0.230190E-07
  0.186585E+02  0.385610E+02  0.158657E-06  0.112505E-08
  0.186585E+02  0.410488E+02  0.393093E-06  0.522773E-07
  0.186585E+02  0.435366E+02  0.271014E-06  0.152172E-07
  0.186585E+02  0.460244E+02  0.123317E-06 -0.153416E-07
  0.186585E+02  0.485122E+02  0.252101E-06 -0.669076E-08
  0.186585E+02  0.510000E+02  0.211079E-06  0.178497E-07
  0.186585E+02  0.534878E+02  0.167495E-06  0.136962E-07
  0.186585E+02  0.559756E+02  0.135544E-06  0.188057E-07
  0.186585E+02  0.584634E+02  0.167962E-06  0.512216E-07
  0.186585E+02  0.609512E+02  0.263214E-06  0.805050E-07
  0.186585E+02  0.634390E+02  0.283047E-06  0.892351E-07
  0.186585E+02  0.659268E+02  0.604745E-06  0.111370E-07
  0.186585E+02  0.684146E+02  0.965544E-06 -0.179056E-06
  0.186585E+02  0.709024E+02  0.131052E-05 -0.189195E-06
  0.186585E+02  0.733902E+02  0.162744E-05 -0.226508E-06
  0.186585E+02  0.758780E+02  0.533051E-06 -0.882603E-08
  0.186585E+02  0.783659E+02  0.336920E-06 -0.613716E-08
  0.186585E+02  0.808537E+02  0.278199E-06 -0.145188E-07
  0.186585E+02  0.833415E+02  0.523761E-06 -0.243633E-08
  0.186585E+02  0.858293E+02  0.146744E-05 -0.202700E-06
  0.186585E+02  0.883171E+02  0.164809E-05 -0.221758E-06
  0.186585E+02  0.908049E+02  0.116982E-05  0.675473E-07
  0.186585E+02  0.932927E+02  0.430657E-06  0.395085E-07
  0.186585E+02  0.957805E+02  0.256279E-06  0.162659E-07
  0.186585E+02  0.982683E+02  0.250012E-06  0.119014E-07
  0.186585E+02  0.100756E+03  0.425725E-06  0.856732E-08
  0.211463E+02  0.124390E+01  0.243178E-06 -0.111194E-07
  0.211463E+02  0.373171E+01  0.629281E-06  0.140659E-07
  0.211463E+02  0.621951E+01  0.353778E-06 -0.193659E-07
  0.211463E+02  0.870732E+01  0.268426E-06 -0.504834E-07
  0.211463E+02  0.111951E+02  0.272339E-06  0.323146E-08
  0.211463E+02  0.136829E+02  0.198937E-06  0.464195E-07
  0.211463E+02  0.161707E+02  0.365053E-06  0.487775E-07
  0.211463E+02  0.186585E+02  0.358384E-06  0.592388E-07
  0.211463E+02  0.211463E+02  0.612550E-06  0.579853E-07
  0.211463E+02  0.236341E+02  0.440803E-06 -0.371140E-07
  0.211463E+02  0.261220E+02  0.330897E-06 -0.422067E-07
  0.211463E+02  0.286098E+02  0.379796E-06 -0.474483E-07
  0.211463E+02  0.310976E+02  0.560964E-06 -0.971150E-07
  0.211463E+02  0.335854E+02  0.247658E-06 -0.426179E-07
  0.211463E+02  0.360732E+02  0.981863E-07 -0.149915E-07
  0.211463E+02  0.385610E+02  0.137291E-06 -0.208382E-07
  0.211463E+02  0.410488E+02  0.292725E-06 -0.255663E-08
  0.211463E+02  0.435366E+02  0.278425E-06  0.152045E-07
  0.211463E+02  0.460244E+02  0.186493E-06 -0.838927E-08
  0.211463E+02  0.485122E+02  0.255890E-06 -0.144179E-07
  0.211463E+02  0.510000E+02  0.358949E-06  0.108103E-08
  0.211463E+02  0.534878E+02  0.283099E-06  0.834942E-08
  0.211463E+02  0.559756E+02  0.157223E-06  0.133571E-07
  0.211463E+02  0.584634E+02  0.168627E-06  0.372369E-07
  0.211463E+02  0.609512E+02  0.337579E-06  0.617640E-07
  0.211463E+02  0.634390E+02  0.200538E-06  0.163908E-07
  0.211463E+02  0.659268E+02  0.105172E-05 -0.814225E-07
  0.211463E+02  0.684146E+02  0.964075E-06 -0.198580E-06
  0.211463E+02  0.709024E+02  0.218957E-05 -0.384336E-06
  0.211463E+02  0.733902E+02  0.100530E-05 -0.376635E-07
  0.211463E+02  0.758780E+02  0.464505E-06  0.468646E-07
  0.211463E+02  0.783659E+02  0.569114E-06  0.948753E-07
  0.211463E+02  0.808537E+02  0.420852E-06 -0.517054E-07
  0.211463E+02  0.833415E+02  0.795843E-06 -0.214074E-06
  0.211463E+02  0.858293E+02  0.139269E-05 -0.212212E-06
  0.211463E+02  0.883171E+02  0.620629E-06 -0.845485E-07
  0.211463E+02  0.908049E+02  0.627481E-06  0.731424E-07
  0.211463E+02  0.932927E+02  0.550679E-06  0.127038E-06
  0.211463E+02  0.957805E+02  0.406610E-06  0.614601E-07
  0.211463E+02  0.982683E+02  0.400438E-06  0.462025E-07
  0.211463E+02  0.100756E+03  0.236088E-06  0.110908E-07
  0.236341E+02  0.124390E+01  0.257734E-06 -0.126336E-07
  0.236341E+02  0.373171E+01  0.362159E-06 -0.376871E-07
  0.236341E+02  0.621951E+01  0.627449E-06 -0.561527E-07
  0.236341E+02  0.870732E+01  0.224884E-06  0.852958E-08
  0.236341E+02  0.111951E+02  0.236533E-06  0.274623E-07
  0.236341E+02  0.136829E+02  0.161428E-06  0.372879E-07
  0.236341E+02  0.161707E+02  0.446686E-06  0.993841E-07
  0.236341E+02  0.186585E+02  0.391031E-06  0.875668E-07
  0.236341E+02  0.211463E+02  0.778676E-06  0.978681E-07
  0.236341E+02  0.236341E+02  0.648016E-06  0.592238E-07
  0.236341E+02  0.261220E+02  0.319075E-06 -0.110008E-07
  0.236341E+02  0.286098E+02  0.558045E-06 -0.820657E-07
  0.236341E+02  0.310976E+02  0.377751E-06 -0.567445E-07
  0.236341E+02  0.335854E+02  0.260885E-06 -0.444122E-07
  0.236341E+02  0.360732E+02  0.141560E-06 -0.425585E-07
  0.236341E+02  0.385610E+02  0.118912E-06 -0.244120E-07
  0.236341E+02  0.410488E+02  0.181124E-06 -0.127642E-07
  0.236341E+02  0.435366E+02  0.235489E-06  0.278156E-08
  0.236341E+02  0.460244E+02  0.190719E-06 -0.978206E-09
  0.236341E+02  0.485122E+02  0.279468E-06 -0.368829E-07
  0.236341E+02  0.510000E+02  0.262833E-06 -0.477387E-07
  0.236341E+02  0.534878E+02  0.197606E-06 -0.432390E-08
  0.236341E+02  0.559756E+02  0.293177E-06  0.249299E-07
  0.236341E+02  0.584634E+02  0.186236E-06  0.157364E-07
  0.236341E+02  0.609512E+02  0.304986E-06  0.443771E-07
  0.236341E+02  0.634390E+02  0.688973E-06 -0.705115E-07
  0.236341E+02  0.659268E+02  0.500981E-06 -0.533874E-07
  0.236341E+02  0.684146E+02  0.157463E-05 -0.177589E-06
  0.236341E+02  0.709024E+02  0.939601E-06 -0.219241E-07
  0.236341E+02  0.733902E+02  0.136432E-05  0.203261E-06
  0.236341E+02  0.758780E+02  0.334775E-06  0.781180E-07
  0.236341E+02  0.783659E+02  0.611137E-06  0.600276E-07
  0.236341E+02  0.808537E+02  0.627224E-06 -0.713580E-07
  0.236341E+02  0.833415E+02  0.600820E-06 -0.183087E-06
  0.236341E+02  0.858293E+02  0.143563E-05 -0.235044E-06
  0.236341E+02  0.883171E+02  0.674877E-06 -0.406672E-07
  0.236341E+02  0.908049E+02  0.318811E-06  0.455239E-07
  0.236341E+02  0.932927E+02  0.545354E-06  0.869577E-07
  0.236341E+02  0.957805E+02  0.626528E-06  0.112605E-06
  0.236341E+02  0.982683E+02  0.555341E-06  0.139150E-06
  0.236341E+02  0.100756E+03  0.447420E-06  0.558144E-07
  0.261220E+02  0.124390E+01  0.348634E-06 -0.206425E-07
  0.261220E+02  0.373171E+01  0.639667E-06 -0.939110E-07
  0.261220E+02  0.621951E+01  0.404878E-06 -0.452173E-07
  0.261220E+02  0.870732E+01  0.176748E-06  0.133538E-07
  0.261220E+02  0.111951E+02  0.230790E-06  0.459145E-07
  0.261220E+02  0.136829E+02  0.167413E-06  0.169842E-07
  0.261220E+02  0.161707E+02  0.303472E-06  0.323843E-07
  0.261220E+02  0.186585E+02  0.536835E-06  0.641457E-07
  0.261220E+02  0.211463E+02  0.665233E-06  0.731042E-07
  0.261220E+02  0.236341E+02  0.595365E-06  0.111365E-06
  0.261220E+02  0.261220E+02  0.490183E-06  0.685907E-07
  0.261220E+02  0.286098E+02  0.399193E-06  0.123572E-07
  0.261220E+02  0.310976E+02  0.386331E-06 -0.316375E-07
  0.261220E+02  0.335854E+02  0.329780E-06 -0.849256E-07
  0.261220E+02  0.360732E+02  0.952723E-07 -0.492112E-07
  0.261220E+02  0.385610E+02  0.121124E-06 -0.402725E-07
  0.261220E+02  0.410488E+02  0.213659E-06 -0.167411E-07
  0.261220E+02  0.435366E+02  0.268270E-06 -0.219487E-07
  0.261220E+02  0.460244E+02  0.415439E-06 -0.506171E-07
  0.261220E+02  0.485122E+02  0.703087E-06 -0.179660E-06
  0.261220E+02  0.510000E+02  0.415764E-06 -0.156107E-06
  0.261220E+02  0.534878E+02  0.250118E-06 -0.541729E-07
  0.261220E+02  0.559756E+02  0.389008E-06 -0.529299E-07
  0.261220E+02  0.584634E+02  0.325393E-06 -0.428970E-07
  0.261220E+02  0.609512E+02  0.323918E-06 -0.133721E-07
  0.261220E+02  0.634390E+02  0.918987E-06  0.518051E-07
  0.261220E+02  0.659268E+02  0.847176E-06 -0.109070E-06
  0.261220E+02  0.684146E+02  0.946790E-06 -0.477325E-07
  0.261220E+02  0.709024E+02  0.895754E-06  0.521518E-07
  0.261220E+02  0.733902E+02  0.708614E-06  0.218616E-06
  0.261220E+02  0.758780E+02  0.450992E-06  0.335396E-06
  0.261220E+02  0.783659E+02  0.579204E-06  0.116832E-06
  0.261220E+02  0.808537E+02  0.668830E-06 -0.241668E-07
  0.261220E+02  0.833415E+02  0.930054E-06 -0.226752E-06
  0.261220E+02  0.858293E+02  0.790694E-06 -0.968656E-07
  0.261220E+02  0.883171E+02  0.354633E-06  0.233551E-08
  0.261220E+02  0.908049E+02  0.410222E-06  0.694673E-08
  0.261220E+02  0.932927E+02  0.737308E-06  0.111890E-06
  0.261220E+02  0.957805E+02  0.539033E-06  0.153047E-06
  0.261220E+02  0.982683E+02  0.409097E-06  0.109005E-06
  0.261220E+02  0.100756E+03  0.515179E-06  0.494552E-07
  0.286098E+02  0.124390E+01  0.535660E-06 -0.348366E-07
  0.286098E+02  0.373171E+01  0.565958E-06 -0.290465E-07
  0.286098E+02  0.621951E+01  0.203451E-06 -0.540865E-08
  0.286098E+02  0.870732E+01  0.103489E-06 -0.787778E-08
  0.286098E+02  0.111951E+02  0.168239E-06  0.497331E-08
  0.286098E+02  0.136829E+02  0.159937E-06  0.269495E-08
  0.286098E+02  0.161707E+02  0.208353E-06  0.844203E-08
  0.286098E+02  0.186585E+02  0.504339E-06  0.761271E-07
  0.286098E+02  0.211463E+02  0.436015E-06  0.778597E-07
  0.286098E+02  0.236341E+02  0.447432E-06  0.777380E-07
  0.286098E+02  0.261220E+02  0.366879E-06  0.886924E-07
  0.286098E+02  0.286098E+02  0.351388E-06  0.426355E-07
  0.286098E+02  0.310976E+02  0.281879E-06 -0.277629E-07
  0.286098E+02  0.335854E+02  0.281611E-06 -0.783258E-07
  0.286098E+02  0.360732E+02  0.104112E-06 -0.677157E-07
  0.286098E+02  0.385610E+02  0.687572E-07 -0.409046E-07
  0.286098E+02  0.410488E+02  0.264391E-06 -0.481372E-07
  0.286098E+02  0.435366E+02  0.477711E-06 -0.720576E-07
  0.286098E+02  0.460244E+02  0.495064E-06 -0.829819E-07
  0.286098E+02  0.485122E+02  0.695211E-06 -0.944389E-07
  0.286098E+02  0.510000E+02  0.355927E-06 -0.681439E-07
  0.286098E+02  0.534878E+02  0.619131E-06 -0.125714E-06
  0.286098E+02  0.559756E+02  0.333149E-06 -0.792854E-07
  0.286098E+02  0.584634E+02  0.426400E-06 -0.866053E-07
  0.286098E+02  0.609512E+02  0.278053E-06 -0.112483E-06
  0.286098E+02  0.634390E+02  0.803800E-06  0.526406E-07
  0.286098E+02  0.659268E+02  0.749071E-06  0.117119E-06
  0.286098E+02  0.684146E+02  0.576819E-06  0.247303E-07
  0.286098E+02  0.709024E+02  0.561773E-06  0.710937E-07
  0.286098E+02  0.733902E+02  0.272259E-06  0.133837E-06
  0.286098E+02  0.758780E+02  0.406308E-06  0.145309E-06
  0.286098E+02  0.783659E+02  0.485487E-06  0.939836E-07
  0.286098E+02  0.808537E+02  0.944503E-06  0.411630E-07
  0.286098E+02  0.833415E+02  0.754527E-06 -0.405764E-07
  0.286098E+02  0.858293E+02  0.538681E-06  0.119832E-08
  0.286098E+02  0.883171E+02  0.505246E-06  0.159021E-07
  0.286098E+02  0.908049E+02  0.336634E-06  0.259905E-07
  0.286098E+02  0.932927E+02  0.389018E-06  0.617207E-07
  0.286098E+02  0.957805E+02  0.368682E-06  0.101926E-06
  0.286098E+02  0.982683E+02  0.303741E-06  0.398531E-07
  0.286098E+02  0.100756E+03  0.526144E-06 -0.137176E-07
  0.310976E+02  0.124390E+01  0.426268E-06 -0.417548E-08
  0.310976E+02  0.373171E+01  0.212989E-06 -0.774202E-08
  0.310976E+02  0.621951E+01  0.220915E-06  0.381329E-08
  0.310976E+02  0.870732E+01  0.968480E-07 -0.904433E-08
  0.310976E+02  0.111951E+02  0.146270E-06 -0.350148E-07
  0.310976E+02  0.136829E+02  0.145872E-06 -0.298920E-07
  0.310976E+02  0.161707E+02  0.180061E-06 -0.211265E-07
  0.310976E+02  0.186585E+02  0.276251E-06  0.570039E-07
  0.310976E+02  0.211463E+02  0.506374E-06  0.136668E-06
  0.310976E+02  0.236341E+02  0.397875E-06  0.133888E-06
  0.310976E+02  0.261220E+02  0.418569E-06  0.129496E-06
  0.310976E+02  0.286098E+02  0.655667E-06  0.232641E-07
  0.310976E+02  0.310976E+02  0.294636E-06 -0.401113E-07
  0.310976E+02  0.335854E+02  0.372497E-06 -0.934578E-07
  0.310976E+02  0.360732E+02  0.710492E-07 -0.490250E-07
  0.310976E+02  0.385610E+02  0.171119E-06 -0.132555E-06
  0.310976E+02  0.410488E+02  0.401923E-06 -0.153102E-06
  0.310976E+02  0.435366E+02  0.474889E-06 -0.868091E-07
  0.310976E+02  0.460244E+02  0.553948E-06 -0.472214E-08
  0.310976E+02  0.485122E+02  0.766419E-06  0.262610E-07
  0.310976E+02  0.510000E+02  0.645976E-06 -0.511356E-07
  0.310976E+02  0.534878E+02  0.584810E-06 -0.771187E-07
  0.310976E+02  0.559756E+02  0.422612E-06 -0.119496E-06
  0.310976E+02  0.584634E+02  0.498182E-06 -0.147579E-06
  0.310976E+02  0.609512E+02  0.166352E-06 -0.414834E-07
  0.310976E+02  0.634390E+02  0.207979E-06 -0.243294E-07
  0.310976E+02  0.659268E+02  0.384519E-06  0.125044E-07
  0.310976E+02  0.684146E+02  0.415198E-06  0.345644E-07
  0.310976E+02  0.709024E+02  0.200841E-06  0.497295E-07
  0.310976E+02  0.733902E+02  0.252802E-06  0.126055E-06
  0.310976E+02  0.758780E+02  0.486250E-06  0.162401E-06
  0.310976E+02  0.783659E+02  0.688948E-06  0.120222E-06