variables="x","h","c"
zone i=     42,T= "1dxhc;t= 0.1500E+03y,z:   1   1"
    0.00000E+00    0.50000E+00    0.00000E+00
    0.24878E+01    0.49840E+00    0.24836E-26
    0.49756E+01    0.49475E+00   -0.59282E-26
    0.74634E+01    0.49110E+00    0.17675E-25
    0.99512E+01    0.48830E+00   -0.28010E-26
    0.12439E+02    0.48587E+00   -0.31576E-25
    0.14927E+02    0.48342E+00   -0.12811E-23
    0.17415E+02    0.48080E+00    0.82088E-23
    0.19902E+02    0.47719E+00    0.71420E-22
    0.22390E+02    0.47263E+00    0.98240E-21
    0.24878E+02    0.46878E+00    0.34570E-20
    0.27366E+02    0.46408E+00    0.16039E-19
    0.29854E+02    0.45499E+00    0.22382E-18
    0.32341E+02    0.44908E+00    0.34483E-17
    0.34829E+02    0.44199E+00    0.41341E-16
    0.37317E+02    0.43454E+00    0.33216E-15
    0.39805E+02    0.42960E+00    0.12918E-14
    0.42293E+02    0.42473E+00    0.26541E-13
    0.44780E+02    0.42154E+00    0.56455E-12
    0.47268E+02    0.41872E+00    0.40235E-11
    0.49756E+02    0.41584E+00    0.11009E-10
    0.52244E+02    0.41190E+00    0.54146E-10
    0.54732E+02    0.40790E+00    0.16349E-09
    0.57220E+02    0.39974E+00    0.68212E-09
    0.59707E+02    0.39477E+00    0.19608E-08
    0.62195E+02    0.38648E+00    0.10001E-07
    0.64683E+02    0.37759E+00    0.49249E-07
    0.67171E+02    0.36960E+00    0.18998E-06
    0.69659E+02    0.36302E+00    0.71582E-06
    0.72146E+02    0.35646E+00    0.34113E-05
    0.74634E+02    0.35039E+00    0.12475E-04
    0.77122E+02    0.34466E+00    0.34658E-04
    0.79610E+02    0.33509E+00    0.16210E-03
    0.82098E+02    0.33024E+00    0.15728E-02
    0.84585E+02    0.33090E+00    0.32509E-03
    0.87073E+02    0.33779E+00    0.86675E-01
    0.89561E+02    0.34662E+00    0.27424E+00
    0.92049E+02    0.36119E+00    0.44925E+00
    0.94537E+02    0.37890E+00    0.72641E+00
    0.97024E+02    0.38827E+00    0.80502E+00
    0.99512E+02    0.39848E+00    0.91605E+00
    0.10200E+03    0.40007E+00    0.10000E+01
zone i=     42,T= "1dxhc;t= 0.1500E+03y,z:   1  12"
    0.00000E+00    0.50000E+00    0.00000E+00
    0.24878E+01    0.49641E+00    0.33444E-20
    0.49756E+01    0.49475E+00    0.55121E-20
    0.74634E+01    0.49181E+00    0.43663E-19
    0.99512E+01    0.48994E+00    0.99283E-19
    0.12439E+02    0.48723E+00    0.10397E-18
    0.14927E+02    0.48522E+00    0.21675E-18
    0.17415E+02    0.48236E+00    0.28529E-18
    0.19902E+02    0.47833E+00    0.29464E-17
    0.22390E+02    0.47157E+00    0.13940E-16
    0.24878E+02    0.46286E+00    0.49338E-16
    0.27366E+02    0.45907E+00    0.11841E-15
    0.29854E+02    0.45457E+00    0.38675E-15
    0.32341E+02    0.45064E+00    0.11814E-14
    0.34829E+02    0.44564E+00    0.36116E-14
    0.37317E+02    0.43688E+00    0.12703E-13
    0.39805E+02    0.43105E+00    0.33250E-13
    0.42293E+02    0.42802E+00    0.18231E-12
    0.44780E+02    0.42528E+00    0.13027E-11
    0.47268E+02    0.42114E+00    0.46776E-11
    0.49756E+02    0.41634E+00    0.83118E-11
    0.52244E+02    0.41061E+00    0.16909E-10
    0.54732E+02    0.40529E+00    0.11012E-10
    0.57220E+02    0.40101E+00   -0.98420E-11
    0.59707E+02    0.39466E+00    0.35256E-10
    0.62195E+02    0.38465E+00   -0.63979E-10
    0.64683E+02    0.37719E+00    0.82946E-10
    0.67171E+02    0.37030E+00    0.65287E-10
    0.69659E+02    0.36458E+00    0.40157E-09
    0.72146E+02    0.35733E+00    0.36413E-08
    0.74634E+02    0.34545E+00    0.18674E-07
    0.77122E+02    0.33821E+00    0.25679E-07
    0.79610E+02    0.32944E+00    0.26867E-06
    0.82098E+02    0.32059E+00    0.36202E-05
    0.84585E+02    0.31575E+00    0.23365E-04
    0.87073E+02    0.30781E+00    0.10373E-03
    0.89561E+02    0.29748E+00    0.38668E-03
    0.92049E+02    0.28495E+00   -0.11523E-02
    0.94537E+02    0.26294E+00    0.43607E-01
    0.97024E+02    0.25341E+00    0.12581E+00
    0.99512E+02    0.21871E+00    0.43084E+00
    0.10200E+03    0.16005E+00    0.10000E+01
zone i=     42,T= "1dxhc;t= 0.1500E+03y,z:   1  22"
    0.00000E+00    0.49952E+00   -0.24946E-19
    0.24878E+01    0.49819E+00   -0.55798E-19
    0.49756E+01    0.49375E+00   -0.34812E-18
    0.74634E+01    0.48871E+00   -0.92441E-18
    0.99512E+01    0.47754E+00   -0.32245E-17
    0.12439E+02    0.47085E+00   -0.65119E-17
    0.14927E+02    0.45944E+00   -0.94258E-17
    0.17415E+02    0.45064E+00   -0.22285E-16
    0.19902E+02    0.44325E+00   -0.19247E-16
    0.22390E+02    0.43434E+00   -0.54237E-16
    0.24878E+02    0.42679E+00   -0.23361E-15
    0.27366E+02    0.42296E+00   -0.10089E-14
    0.29854E+02    0.41675E+00   -0.37392E-14
    0.32341E+02    0.40888E+00   -0.10454E-13
    0.34829E+02    0.40278E+00   -0.22761E-13
    0.37317E+02    0.39909E+00   -0.31580E-13
    0.39805E+02    0.39619E+00   -0.34139E-13
    0.42293E+02    0.39400E+00   -0.21862E-12
    0.44780E+02    0.39134E+00   -0.18089E-11
    0.47268E+02    0.38864E+00   -0.83069E-11
    0.49756E+02    0.38404E+00   -0.29948E-10
    0.52244E+02    0.37194E+00   -0.60125E-10
    0.54732E+02    0.35488E+00   -0.22936E-09
    0.57220E+02    0.33735E+00   -0.68984E-09
    0.59707E+02    0.31886E+00   -0.31809E-08
    0.62195E+02    0.30055E+00   -0.98229E-08
    0.64683E+02    0.28936E+00   -0.27045E-07
    0.67171E+02    0.27689E+00   -0.80261E-07
    0.69659E+02    0.25857E+00   -0.24105E-06
    0.72146E+02    0.23165E+00   -0.84745E-06
    0.74634E+02    0.21938E+00   -0.21727E-05
    0.77122E+02    0.20991E+00   -0.43038E-05
    0.79610E+02    0.19139E+00   -0.10739E-04
    0.82098E+02    0.17266E+00   -0.19591E-04
    0.84585E+02    0.15803E+00   -0.36325E-04
    0.87073E+02    0.14256E+00   -0.27808E-04
    0.89561E+02    0.12718E+00   -0.73585E-04
    0.92049E+02    0.10429E+00   -0.17658E-03
    0.94537E+02    0.60368E-01   -0.15301E-03
    0.97024E+02    0.30534E-01    0.27792E-03
    0.99512E+02    0.66621E-02    0.11819E-02
    0.10200E+03    0.18462E-02    0.30526E-02
zone i=     42,T= "1dxhc;t= 0.3000E+03y,z:   1   1"
    0.00000E+00    0.50000E+00    0.00000E+00
    0.24878E+01    0.49840E+00   -0.41455E-24
    0.49756E+01    0.49474E+00   -0.42400E-23
    0.74634E+01    0.49108E+00    0.22019E-22
    0.99512E+01    0.48827E+00    0.17223E-22
    0.12439E+02    0.48583E+00   -0.12326E-21
    0.14927E+02    0.48337E+00   -0.87378E-21
    0.17415E+02    0.48074E+00    0.11668E-19
    0.19902E+02    0.47711E+00    0.14551E-18
    0.22390E+02    0.47254E+00    0.14475E-17
    0.24878E+02    0.46868E+00    0.49152E-17
    0.27366E+02    0.46396E+00    0.19595E-16
    0.29854E+02    0.45484E+00    0.21181E-15
    0.32341E+02    0.44891E+00    0.25124E-14
    0.34829E+02    0.44180E+00    0.23828E-13
    0.37317E+02    0.43432E+00    0.15952E-12
    0.39805E+02    0.42936E+00    0.49975E-12
    0.42293E+02    0.42447E+00    0.76121E-11
    0.44780E+02    0.42126E+00    0.13030E-09
    0.47268E+02    0.41844E+00    0.75368E-09
    0.49756E+02    0.41555E+00    0.21350E-08
    0.52244E+02    0.41159E+00    0.96216E-08
    0.54732E+02    0.40759E+00    0.26740E-07
    0.57220E+02    0.39941E+00    0.10396E-06
    0.59707E+02    0.39442E+00    0.28163E-06
    0.62195E+02    0.38613E+00    0.12631E-05
    0.64683E+02    0.37724E+00    0.51080E-05
    0.67171E+02    0.36926E+00    0.17501E-04
    0.69659E+02    0.36273E+00    0.57488E-04
    0.72146E+02    0.35631E+00    0.22100E-03
    0.74634E+02    0.35048E+00    0.67233E-03
    0.77122E+02    0.34519E+00    0.14269E-02
    0.79610E+02    0.33766E+00    0.69528E-02
    0.82098E+02    0.33993E+00    0.13926E-01
    0.84585E+02    0.34551E+00    0.16691E+00
    0.87073E+02    0.35697E+00    0.32098E+00
    0.89561E+02    0.36557E+00    0.52705E+00
    0.92049E+02    0.37689E+00    0.66453E+00
    0.94537E+02    0.38903E+00    0.83594E+00
    0.97024E+02    0.39522E+00    0.87379E+00
    0.99512E+02    0.40249E+00    0.95801E+00
    0.10200E+03    0.40007E+00    0.10000E+01
zone i=     42,T= "1dxhc;t= 0.3000E+03y,z:   1  12"
    0.00000E+00    0.50000E+00    0.00000E+00
    0.24878E+01    0.49640E+00    0.32639E-17
    0.49756E+01    0.49473E+00    0.51527E-17
    0.74634E+01    0.49179E+00    0.36082E-16
    0.99512E+01    0.48991E+00    0.72321E-16
    0.12439E+02    0.48719E+00    0.69695E-16
    0.14927E+02    0.48517E+00    0.14785E-15
    0.17415E+02    0.48230E+00    0.16053E-15
    0.19902E+02    0.47826E+00    0.14118E-14
    0.22390E+02    0.47148E+00    0.55469E-14
    0.24878E+02    0.46274E+00    0.16539E-13
    0.27366E+02    0.45893E+00    0.33411E-13
    0.29854E+02    0.45442E+00    0.90732E-13
    0.32341E+02    0.45047E+00    0.23433E-12
    0.34829E+02    0.44546E+00    0.58600E-12
    0.37317E+02    0.43666E+00    0.16870E-11
    0.39805E+02    0.43081E+00    0.37463E-11
    0.42293E+02    0.42777E+00    0.17759E-10
    0.44780E+02    0.42502E+00    0.10239E-09
    0.47268E+02    0.42087E+00    0.31144E-09
    0.49756E+02    0.41605E+00    0.48701E-09
    0.52244E+02    0.41030E+00    0.87844E-09
    0.54732E+02    0.40497E+00    0.43782E-09
    0.57220E+02    0.40068E+00   -0.61866E-09
    0.59707E+02    0.39431E+00    0.14950E-08
    0.62195E+02    0.38428E+00   -0.24850E-08
    0.64683E+02    0.37680E+00    0.34875E-08
    0.67171E+02    0.36989E+00    0.24947E-08
    0.69659E+02    0.36412E+00    0.13193E-07
    0.72146E+02    0.35669E+00    0.10682E-06
    0.74634E+02    0.34420E+00    0.63381E-06
    0.77122E+02    0.33634E+00    0.18221E-05
    0.79610E+02    0.32639E+00    0.13203E-04
    0.82098E+02    0.31572E+00    0.80663E-04
    0.84585E+02    0.30964E+00    0.30245E-03
    0.87073E+02    0.29975E+00    0.10883E-02
    0.89561E+02    0.28765E+00    0.35030E-02
    0.92049E+02    0.27404E+00    0.49612E-02
    0.94537E+02    0.25230E+00    0.79276E-01
    0.97024E+02    0.24353E+00    0.16114E+00
    0.99512E+02    0.21215E+00    0.45845E+00
    0.10200E+03    0.16005E+00    0.10000E+01
zone i=     42,T= "1dxhc;t= 0.3000E+03y,z:   1  22"
    0.00000E+00    0.49952E+00   -0.14110E-16
    0.24878E+01    0.49819E+00   -0.23660E-16
    0.49756E+01    0.49374E+00   -0.11894E-15
    0.74634E+01    0.48870E+00   -0.25243E-15
    0.99512E+01    0.47752E+00   -0.71553E-15
    0.12439E+02    0.47082E+00   -0.12285E-14
    0.14927E+02    0.45940E+00   -0.16687E-14
    0.17415E+02    0.45058E+00   -0.34096E-14
    0.19902E+02    0.44319E+00   -0.35936E-14
    0.22390E+02    0.43427E+00   -0.86653E-14
    0.24878E+02    0.42671E+00   -0.25464E-13
    0.27366E+02    0.42287E+00   -0.74288E-13
    0.29854E+02    0.41665E+00   -0.20843E-12
    0.32341E+02    0.40878E+00   -0.53465E-12
    0.34829E+02    0.40267E+00   -0.14979E-11
    0.37317E+02    0.39898E+00   -0.38613E-11
    0.39805E+02    0.39608E+00   -0.67560E-11
    0.42293E+02    0.39388E+00   -0.30297E-10
    0.44780E+02    0.39122E+00   -0.15428E-09
    0.47268E+02    0.38852E+00   -0.54830E-09
    0.49756E+02    0.38392E+00   -0.16002E-08
    0.52244E+02    0.37181E+00   -0.34432E-08
    0.54732E+02    0.35474E+00   -0.10478E-07
    0.57220E+02    0.33719E+00   -0.24013E-07
    0.59707E+02    0.31870E+00   -0.80274E-07
    0.62195E+02    0.30038E+00   -0.17996E-06
    0.64683E+02    0.28918E+00   -0.38766E-06
    0.67171E+02    0.27670E+00   -0.91599E-06
    0.69659E+02    0.25837E+00   -0.21297E-05
    0.72146E+02    0.23143E+00   -0.51159E-05
    0.74634E+02    0.21915E+00   -0.95898E-05
    0.77122E+02    0.20968E+00   -0.16071E-04
    0.79610E+02    0.19114E+00   -0.34200E-04
    0.82098E+02    0.17239E+00   -0.54741E-04
    0.84585E+02    0.15775E+00   -0.92872E-04
    0.87073E+02    0.14227E+00   -0.91039E-04
    0.89561E+02    0.12689E+00   -0.15494E-03
    0.92049E+02    0.10400E+00   -0.28811E-03
    0.94537E+02    0.60121E-01   -0.24606E-03
    0.97024E+02    0.30358E-01    0.12843E-03
    0.99512E+02    0.66033E-02    0.11501E-02
    0.10200E+03    0.18300E-02    0.30544E-02
zone i=     42,T= "1dxhc;t= 0.4500E+03y,z:   1   1"
    0.00000E+00    0.50000E+00    0.00000E+00
    0.24878E+01    0.49840E+00   -0.32009E-21
    0.49756E+01    0.49474E+00   -0.13428E-22
    0.74634E+01    0.49107E+00    0.16940E-20
    0.99512E+01    0.48826E+00    0.46379E-20
    0.12439E+02    0.48582E+00   -0.13510E-19
    0.14927E+02    0.48337E+00    0.41416E-19
    0.17415E+02    0.48073E+00    0.14622E-17
    0.19902E+02    0.47711E+00    0.24421E-16
    0.22390E+02    0.47253E+00    0.17943E-15
    0.24878E+02    0.46867E+00    0.67826E-15
    0.27366E+02    0.46395E+00    0.24774E-14
    0.29854E+02    0.45482E+00    0.23010E-13
    0.32341E+02    0.44889E+00    0.22747E-12
    0.34829E+02    0.44178E+00    0.18255E-11
    0.37317E+02    0.43430E+00    0.10698E-10
    0.39805E+02    0.42934E+00    0.28682E-10
    0.42293E+02    0.42445E+00    0.35705E-09
    0.44780E+02    0.42124E+00    0.48809E-08
    0.47268E+02    0.41842E+00    0.23948E-07
    0.49756E+02    0.41553E+00    0.66184E-07
    0.52244E+02    0.41158E+00    0.27203E-06
    0.54732E+02    0.40757E+00    0.68664E-06
    0.57220E+02    0.39941E+00    0.24286E-05
    0.59707E+02    0.39443E+00    0.61201E-05
    0.62195E+02    0.38616E+00    0.24632E-04
    0.64683E+02    0.37729E+00    0.87087E-04
    0.67171E+02    0.36936E+00    0.26590E-03
    0.69659E+02    0.36290E+00    0.77493E-03
    0.72146E+02    0.35667E+00    0.25648E-02
    0.74634E+02    0.35122E+00    0.61283E-02
    0.77122E+02    0.34649E+00    0.68876E-02
    0.79610E+02    0.34232E+00   -0.98177E-02
    0.82098E+02    0.35083E+00    0.12403E+00
    0.84585E+02    0.35766E+00    0.32518E+00
    0.87073E+02    0.36821E+00    0.49259E+00
    0.89561E+02    0.37522E+00    0.66457E+00
    0.92049E+02    0.38419E+00    0.76326E+00
    0.94537E+02    0.39355E+00    0.88386E+00
    0.97024E+02    0.39824E+00    0.90544E+00
    0.99512E+02    0.40420E+00    0.97492E+00
    0.10200E+03    0.40007E+00    0.10000E+01
zone i=     42,T= "1dxhc;t= 0.4500E+03y,z:   1  12"
    0.00000E+00    0.50000E+00    0.00000E+00
    0.24878E+01    0.49639E+00    0.22058E-15
    0.49756E+01    0.49473E+00    0.33816E-15
    0.74634E+01    0.49178E+00    0.21744E-14
    0.99512E+01    0.48991E+00    0.40393E-14
    0.12439E+02    0.48719E+00    0.39312E-14
    0.14927E+02    0.48517E+00    0.84489E-14
    0.17415E+02    0.48230E+00    0.82183E-14
    0.19902E+02    0.47826E+00    0.65029E-13
    0.22390E+02    0.47147E+00    0.22902E-12
    0.24878E+02    0.46272E+00    0.63011E-12
    0.27366E+02    0.45892E+00    0.11750E-11
    0.29854E+02    0.45441E+00    0.29205E-11
    0.32341E+02    0.45046E+00    0.69190E-11
    0.34829E+02    0.44544E+00    0.15294E-10
    0.37317E+02    0.43665E+00    0.39042E-10
    0.39805E+02    0.43079E+00    0.79196E-10
    0.42293E+02    0.42775E+00    0.33644E-09
    0.44780E+02    0.42500E+00    0.16358E-08
    0.47268E+02    0.42085E+00    0.44199E-08
    0.49756E+02    0.41603E+00    0.64365E-08
    0.52244E+02    0.41029E+00    0.10649E-07
    0.54732E+02    0.40496E+00    0.44846E-08
    0.57220E+02    0.40067E+00   -0.72679E-08
    0.59707E+02    0.39431E+00    0.15956E-07
    0.62195E+02    0.38429E+00   -0.24116E-07
    0.64683E+02    0.37682E+00    0.36361E-07
    0.67171E+02    0.36990E+00    0.27653E-07
    0.69659E+02    0.36409E+00    0.13030E-06
    0.72146E+02    0.35647E+00    0.10340E-05
    0.74634E+02    0.34339E+00    0.58787E-05
    0.77122E+02    0.33495E+00    0.18168E-04
    0.79610E+02    0.32405E+00    0.79479E-04
    0.82098E+02    0.31216E+00    0.29251E-03
    0.84585E+02    0.30544E+00    0.86182E-03
    0.87073E+02    0.29483E+00    0.26817E-02
    0.89561E+02    0.28234E+00    0.71468E-02
    0.92049E+02    0.26874E+00    0.11106E-01
    0.94537E+02    0.24753E+00    0.99166E-01
    0.97024E+02    0.23917E+00    0.18113E+00
    0.99512E+02    0.20932E+00    0.47422E+00
    0.10200E+03    0.16005E+00    0.10000E+01
zone i=     42,T= "1dxhc;t= 0.4500E+03y,z:   1  22"
    0.00000E+00    0.49952E+00   -0.37883E-15
    0.24878E+01    0.49819E+00   -0.45208E-15
    0.49756E+01    0.49374E+00   -0.17444E-14
    0.74634E+01    0.48869E+00   -0.24903E-14
    0.99512E+01    0.47750E+00   -0.42339E-14
    0.12439E+02    0.47080E+00   -0.35563E-14
    0.14927E+02    0.45937E+00    0.77136E-14
    0.17415E+02    0.45056E+00    0.11260E-13
    0.19902E+02    0.44316E+00    0.12324E-14
    0.22390E+02    0.43423E+00    0.62258E-13
    0.24878E+02    0.42667E+00    0.35187E-12
    0.27366E+02    0.42283E+00    0.12773E-11
    0.29854E+02    0.41661E+00    0.34183E-11
    0.32341E+02    0.40873E+00    0.54313E-11
    0.34829E+02    0.40262E+00   -0.82843E-12
    0.37317E+02    0.39892E+00   -0.36747E-10
    0.39805E+02    0.39602E+00   -0.97829E-10
    0.42293E+02    0.39383E+00   -0.34320E-09
    0.44780E+02    0.39117E+00   -0.12346E-08
    0.47268E+02    0.38846E+00   -0.36461E-08
    0.49756E+02    0.38386E+00   -0.90981E-08
    0.52244E+02    0.37174E+00   -0.21095E-07
    0.54732E+02    0.35467E+00   -0.57190E-07
    0.57220E+02    0.33711E+00   -0.11272E-06
    0.59707E+02    0.31861E+00   -0.30719E-06
    0.62195E+02    0.30028E+00   -0.57840E-06
    0.64683E+02    0.28908E+00   -0.10994E-05
    0.67171E+02    0.27659E+00   -0.23247E-05
    0.69659E+02    0.25825E+00   -0.47742E-05
    0.72146E+02    0.23130E+00   -0.94809E-05
    0.74634E+02    0.21902E+00   -0.15248E-04
    0.77122E+02    0.20954E+00   -0.23983E-04
    0.79610E+02    0.19099E+00   -0.47681E-04
    0.82098E+02    0.17224E+00   -0.74307E-04
    0.84585E+02    0.15758E+00   -0.12411E-03
    0.87073E+02    0.14210E+00   -0.13434E-03
    0.89561E+02    0.12671E+00   -0.20718E-03
    0.92049E+02    0.10383E+00   -0.34902E-03
    0.94537E+02    0.59982E-01   -0.31252E-03
    0.97024E+02    0.30258E-01    0.30498E-04
    0.99512E+02    0.65696E-02    0.11073E-02
    0.10200E+03    0.18196E-02    0.29775E-02
zone i=     42,T= "1dxhc;t= 0.6000E+03y,z:   1   1"
    0.00000E+00    0.50000E+00    0.00000E+00
    0.24878E+01    0.49840E+00   -0.96094E-20
    0.49756E+01    0.49474E+00    0.51088E-20
    0.74634E+01    0.49108E+00    0.36587E-19
    0.99512E+01    0.48827E+00    0.18794E-18
    0.12439E+02    0.48582E+00   -0.11703E-18
    0.14927E+02    0.48337E+00    0.58307E-17
    0.17415E+02    0.48074E+00    0.59681E-16
    0.19902E+02    0.47711E+00    0.10909E-14
    0.22390E+02    0.47254E+00    0.65194E-14
    0.24878E+02    0.46868E+00    0.27230E-13
    0.27366E+02    0.46396E+00    0.92152E-13
    0.29854E+02    0.45484E+00    0.75711E-12
    0.32341E+02    0.44891E+00    0.64202E-11
    0.34829E+02    0.44179E+00    0.44750E-10
    0.37317E+02    0.43432E+00    0.23157E-09
    0.39805E+02    0.42936E+00    0.54954E-09
    0.42293E+02    0.42447E+00    0.58704E-08
    0.44780E+02    0.42127E+00    0.66653E-07
    0.47268E+02    0.41845E+00    0.28870E-06
    0.49756E+02    0.41556E+00    0.73504E-06
    0.52244E+02    0.41161E+00    0.27272E-05
    0.54732E+02    0.40761E+00    0.61061E-05
    0.57220E+02    0.39945E+00    0.19008E-04
    0.59707E+02    0.39448E+00    0.42823E-04
    0.62195E+02    0.38622E+00    0.14745E-03
    0.64683E+02    0.37738E+00    0.42601E-03
    0.67171E+02    0.36950E+00    0.10972E-02
    0.69659E+02    0.36312E+00    0.27328E-02
    0.72146E+02    0.35712E+00    0.73541E-02
    0.74634E+02    0.35211E+00    0.15248E-01
    0.77122E+02    0.34821E+00    0.24336E-01
    0.79610E+02    0.34796E+00   -0.70367E-02
    0.82098E+02    0.35929E+00    0.22648E+00
    0.84585E+02    0.36607E+00    0.45337E+00
    0.87073E+02    0.37525E+00    0.60784E+00
    0.89561E+02    0.38109E+00    0.74447E+00
    0.92049E+02    0.38853E+00    0.81899E+00
    0.94537E+02    0.39621E+00    0.91093E+00
    0.97024E+02    0.40000E+00    0.92403E+00
    0.99512E+02    0.40519E+00    0.98361E+00
    0.10200E+03    0.40007E+00    0.10000E+01
zone i=     42,T= "1dxhc;t= 0.6000E+03y,z:   1  12"
    0.00000E+00    0.50000E+00    0.00000E+00
    0.24878E+01    0.49640E+00    0.37785E-14
    0.49756E+01    0.49473E+00    0.57098E-14
    0.74634E+01    0.49178E+00    0.34388E-13
    0.99512E+01    0.48991E+00    0.60874E-13
    0.12439E+02    0.48719E+00    0.63388E-13
    0.14927E+02    0.48517E+00    0.13554E-12
    0.17415E+02    0.48230E+00    0.12471E-12
    0.19902E+02    0.47826E+00    0.90437E-12
    0.22390E+02    0.47148E+00    0.29128E-11
    0.24878E+02    0.46273E+00    0.76063E-11
    0.27366E+02    0.45893E+00    0.13515E-10
    0.29854E+02    0.45442E+00    0.31547E-10
    0.32341E+02    0.45047E+00    0.69816E-10
    0.34829E+02    0.44545E+00    0.14033E-09
    0.37317E+02    0.43666E+00    0.32637E-09
    0.39805E+02    0.43081E+00    0.62135E-09
    0.42293E+02    0.42777E+00    0.23882E-08
    0.44780E+02    0.42502E+00    0.99310E-08
    0.47268E+02    0.42087E+00    0.24407E-07
    0.49756E+02    0.41606E+00    0.34318E-07
    0.52244E+02    0.41032E+00    0.53968E-07
    0.54732E+02    0.40499E+00    0.22992E-07
    0.57220E+02    0.40071E+00   -0.29760E-07
    0.59707E+02    0.39435E+00    0.70550E-07
    0.62195E+02    0.38433E+00   -0.96491E-07
    0.64683E+02    0.37686E+00    0.16217E-06
    0.67171E+02    0.36994E+00    0.13917E-06
    0.69659E+02    0.36407E+00    0.60255E-06
    0.72146E+02    0.35628E+00    0.43596E-05
    0.74634E+02    0.34268E+00    0.21706E-04
    0.77122E+02    0.33378E+00    0.62525E-04
    0.79610E+02    0.32218E+00    0.20685E-03
    0.82098E+02    0.30953E+00    0.59558E-03
    0.84585E+02    0.30250E+00    0.15746E-02
    0.87073E+02    0.29164E+00    0.43039E-02
    0.89561E+02    0.27910E+00    0.10273E-01
    0.92049E+02    0.26563E+00    0.16188E-01
    0.94537E+02    0.24482E+00    0.11217E+00
    0.97024E+02    0.23670E+00    0.19430E+00
    0.99512E+02    0.20773E+00    0.48501E+00
    0.10200E+03    0.16005E+00    0.10000E+01
zone i=     42,T= "1dxhc;t= 0.6000E+03y,z:   1  22"
    0.00000E+00    0.49952E+00   -0.10724E-15
    0.24878E+01    0.49819E+00    0.18893E-14
    0.49756E+01    0.49374E+00    0.12740E-13
    0.74634E+01    0.48868E+00    0.38510E-13
    0.99512E+01    0.47749E+00    0.12597E-12
    0.12439E+02    0.47079E+00    0.24698E-12
    0.14927E+02    0.45936E+00    0.55072E-12
    0.17415E+02    0.45054E+00    0.93652E-12
    0.19902E+02    0.44314E+00    0.10091E-11
    0.22390E+02    0.43421E+00    0.31038E-11
    0.24878E+02    0.42664E+00    0.93660E-11
    0.27366E+02    0.42280E+00    0.24693E-10
    0.29854E+02    0.41658E+00    0.56638E-10
    0.32341E+02    0.40870E+00    0.96211E-10
    0.34829E+02    0.40259E+00    0.10346E-09
    0.37317E+02    0.39889E+00   -0.50010E-10
    0.39805E+02    0.39599E+00   -0.40220E-09
    0.42293E+02    0.39379E+00   -0.12020E-08
    0.44780E+02    0.39113E+00   -0.32122E-08
    0.47268E+02    0.38843E+00   -0.85737E-08
    0.49756E+02    0.38382E+00   -0.19233E-07
    0.52244E+02    0.37170E+00   -0.51357E-07
    0.54732E+02    0.35462E+00   -0.13194E-06
    0.57220E+02    0.33706E+00   -0.23980E-06
    0.59707E+02    0.31855E+00   -0.57032E-06
    0.62195E+02    0.30021E+00   -0.97065E-06
    0.64683E+02    0.28901E+00   -0.17205E-05
    0.67171E+02    0.27652E+00   -0.34414E-05
    0.69659E+02    0.25817E+00   -0.66171E-05
    0.72146E+02    0.23121E+00   -0.11859E-04
    0.74634E+02    0.21893E+00   -0.17537E-04
    0.77122E+02    0.20944E+00   -0.26866E-04
    0.79610E+02    0.19089E+00   -0.51701E-04
    0.82098E+02    0.17213E+00   -0.80551E-04
    0.84585E+02    0.15747E+00   -0.13496E-03
    0.87073E+02    0.14199E+00   -0.15286E-03
    0.89561E+02    0.12660E+00   -0.23084E-03
    0.92049E+02    0.10372E+00   -0.37634E-03
    0.94537E+02    0.59889E-01   -0.34146E-03
    0.97024E+02    0.30192E-01   -0.12555E-04
    0.99512E+02    0.65473E-02    0.10921E-02
    0.10200E+03    0.18127E-02    0.29521E-02
zone i=     42,T= "1dxhc;t= 0.7500E+03y,z:   1   1"
    0.00000E+00    0.50000E+00    0.00000E+00
    0.24878E+01    0.49840E+00   -0.63967E-19
    0.49756E+01    0.49474E+00    0.64021E-19
    0.74634E+01    0.49108E+00    0.48498E-18
    0.99512E+01    0.48827E+00    0.29517E-17
    0.12439E+02    0.48583E+00    0.57592E-17
    0.14927E+02    0.48338E+00    0.15785E-15
    0.17415E+02    0.48075E+00    0.12566E-14
    0.19902E+02    0.47712E+00    0.22033E-13
    0.22390E+02    0.47255E+00    0.11559E-12
    0.24878E+02    0.46869E+00    0.50108E-12
    0.27366E+02    0.46398E+00    0.15709E-11
    0.29854E+02    0.45486E+00    0.11428E-10
    0.32341E+02    0.44893E+00    0.83065E-10
    0.34829E+02    0.44182E+00    0.49896E-09
    0.37317E+02    0.43434E+00    0.22385E-08
    0.39805E+02    0.42939E+00    0.46813E-08
    0.42293E+02    0.42451E+00    0.42193E-07
    0.44780E+02    0.42130E+00    0.38061E-06
    0.47268E+02    0.41848E+00    0.14258E-05
    0.49756E+02    0.41559E+00    0.33362E-05
    0.52244E+02    0.41164E+00    0.11210E-04
    0.54732E+02    0.40765E+00    0.22645E-04
    0.57220E+02    0.39949E+00    0.63277E-04
    0.59707E+02    0.39453E+00    0.13129E-03
    0.62195E+02    0.38628E+00    0.40581E-03
    0.64683E+02    0.37747E+00    0.10394E-02
    0.67171E+02    0.36963E+00    0.24808E-02
    0.69659E+02    0.36335E+00    0.57902E-02
    0.72146E+02    0.35761E+00    0.13834E-01
    0.74634E+02    0.35308E+00    0.25171E-01
    0.77122E+02    0.35008E+00    0.29659E-01
    0.79610E+02    0.35359E+00    0.28127E-01
    0.82098E+02    0.36583E+00    0.30491E+00
    0.84585E+02    0.37206E+00    0.54275E+00
    0.87073E+02    0.38008E+00    0.68732E+00
    0.89561E+02    0.38507E+00    0.79425E+00
    0.92049E+02    0.39146E+00    0.85366E+00
    0.94537E+02    0.39801E+00    0.92791E+00
    0.97024E+02    0.40119E+00    0.93595E+00
    0.99512E+02    0.40584E+00    0.98862E+00
    0.10200E+03    0.40007E+00    0.10000E+01
zone i=     42,T= "1dxhc;t= 0.7500E+03y,z:   1  12"
    0.00000E+00    0.50000E+00    0.00000E+00
    0.24878E+01    0.49640E+00    0.28557E-13
    0.49756E+01    0.49473E+00    0.43054E-13
    0.74634E+01    0.49179E+00    0.24581E-12
    0.99512E+01    0.48991E+00    0.42112E-12
    0.12439E+02    0.48720E+00    0.48023E-12
    0.14927E+02    0.48518E+00    0.10060E-11
    0.17415E+02    0.48231E+00    0.90646E-12
    0.19902E+02    0.47827E+00    0.60305E-11
    0.22390E+02    0.47149E+00    0.17845E-10
    0.24878E+02    0.46275E+00    0.44662E-10
    0.27366E+02    0.45895E+00    0.76679E-10
    0.29854E+02    0.45444E+00    0.16996E-09
    0.32341E+02    0.45049E+00    0.35518E-09
    0.34829E+02    0.44548E+00    0.66529E-09
    0.37317E+02    0.43669E+00    0.14436E-08
    0.39805E+02    0.43084E+00    0.26370E-08
    0.42293E+02    0.42780E+00    0.92782E-08
    0.44780E+02    0.42505E+00    0.33804E-07
    0.47268E+02    0.42090E+00    0.77491E-07
    0.49756E+02    0.41609E+00    0.10812E-06
    0.52244E+02    0.41036E+00    0.16602E-06
    0.54732E+02    0.40503E+00    0.80199E-07
    0.57220E+02    0.40075E+00   -0.61371E-07
    0.59707E+02    0.39439E+00    0.18792E-06
    0.62195E+02    0.38437E+00   -0.22897E-06
    0.64683E+02    0.37689E+00    0.45572E-06
    0.67171E+02    0.36995E+00    0.43008E-06
    0.69659E+02    0.36403E+00    0.17971E-05
    0.72146E+02    0.35609E+00    0.11457E-04
    0.74634E+02    0.34203E+00    0.50163E-04
    0.77122E+02    0.33276E+00    0.13401E-03
    0.79610E+02    0.32065E+00    0.37389E-03
    0.82098E+02    0.30750E+00    0.94461E-03
    0.84585E+02    0.30031E+00    0.23116E-02
    0.87073E+02    0.28936E+00    0.57280E-02
    0.89561E+02    0.27686E+00    0.12784E-01
    0.92049E+02    0.26353E+00    0.20285E-01
    0.94537E+02    0.24300E+00    0.12120E+00
    0.97024E+02    0.23504E+00    0.20354E+00
    0.99512E+02    0.20667E+00    0.49281E+00
    0.10200E+03    0.16005E+00    0.10000E+01
zone i=     42,T= "1dxhc;t= 0.7500E+03y,z:   1  22"
    0.00000E+00    0.49952E+00    0.32342E-13
    0.24878E+01    0.49819E+00    0.53340E-13
    0.49756E+01    0.49373E+00    0.23392E-12
    0.74634E+01    0.48868E+00    0.50204E-12
    0.99512E+01    0.47749E+00    0.13291E-11
    0.12439E+02    0.47079E+00    0.23155E-11
    0.14927E+02    0.45935E+00    0.45081E-11
    0.17415E+02    0.45053E+00    0.75512E-11
    0.19902E+02    0.44312E+00    0.91572E-11
    0.22390E+02    0.43419E+00    0.24536E-10
    0.24878E+02    0.42662E+00    0.62255E-10
    0.27366E+02    0.42278E+00    0.14246E-09
    0.29854E+02    0.41656E+00    0.29845E-09
    0.32341E+02    0.40868E+00    0.49659E-09
    0.34829E+02    0.40256E+00    0.64126E-09
    0.37317E+02    0.39886E+00    0.34109E-09
    0.39805E+02    0.39596E+00   -0.65546E-09
    0.42293E+02    0.39376E+00   -0.17970E-08
    0.44780E+02    0.39110E+00   -0.32134E-08
    0.47268E+02    0.38840E+00   -0.93261E-08
    0.49756E+02    0.38379E+00   -0.19945E-07
    0.52244E+02    0.37166E+00   -0.74350E-07
    0.54732E+02    0.35458E+00   -0.19051E-06
    0.57220E+02    0.33702E+00   -0.33506E-06
    0.59707E+02    0.31850E+00   -0.72832E-06
    0.62195E+02    0.30016E+00   -0.11695E-05
    0.64683E+02    0.28895E+00   -0.20004E-05
    0.67171E+02    0.27646E+00   -0.39232E-05
    0.69659E+02    0.25811E+00   -0.72999E-05
    0.72146E+02    0.23114E+00   -0.12382E-04
    0.74634E+02    0.21885E+00   -0.17447E-04
    0.77122E+02    0.20937E+00   -0.26560E-04
    0.79610E+02    0.19081E+00   -0.50546E-04
    0.82098E+02    0.17204E+00   -0.79695E-04
    0.84585E+02    0.15739E+00   -0.13524E-03
    0.87073E+02    0.14190E+00   -0.15711E-03
    0.89561E+02    0.12651E+00   -0.23725E-03
    0.92049E+02    0.10364E+00   -0.38467E-03
    0.94537E+02    0.59821E-01   -0.35003E-03
    0.97024E+02    0.30144E-01   -0.29743E-04
    0.99512E+02    0.65313E-02    0.10886E-02
    0.10200E+03    0.18078E-02    0.29488E-02
zone i=     42,T= "1dxhc;t= 0.9000E+03y,z:   1   1"
    0.00000E+00    0.50000E+00    0.00000E+00
    0.24878E+01    0.49840E+00    0.10256E-18
    0.49756E+01    0.49474E+00    0.40422E-18