          Title="3D head and conc at t=   0.5000E+04 days"
          variables="x","y","z","head","conc"
          zone i=      22, j=      42, k=      42, T="3D"
  0.00000000E+00  0.00000000E+00  0.00000000E+00  0.50000000E+00  0.00000000E+00
  0.00000000E+00  0.00000000E+00  0.97616788E+00  0.50000000E+00  0.00000000E+00
  0.00000000E+00  0.00000000E+00  0.19523358E+01  0.50000000E+00  0.00000000E+00
  0.00000000E+00  0.00000000E+00  0.29285036E+01  0.50000000E+00  0.00000000E+00
  0.00000000E+00  0.00000000E+00  0.39046715E+01  0.50000000E+00  0.00000000E+00
  0.00000000E+00  0.00000000E+00  0.48808394E+01  0.50000000E+00  0.00000000E+00
  0.00000000E+00  0.00000000E+00  0.58570073E+01  0.50000000E+00  0.00000000E+00
  0.00000000E+00  0.00000000E+00  0.68331751E+01  0.50000000E+00  0.00000000E+00
  0.00000000E+00  0.00000000E+00  0.78093430E+01  0.50000000E+00  0.00000000E+00
  0.00000000E+00  0.00000000E+00  0.87855109E+01  0.50000000E+00  0.00000000E+00
  0.00000000E+00  0.00000000E+00  0.97616788E+01  0.50000000E+00  0.00000000E+00
  0.00000000E+00  0.00000000E+00  0.10737847E+02  0.50000000E+00  0.00000000E+00
  0.00000000E+00  0.00000000E+00  0.11714015E+02  0.50000000E+00  0.00000000E+00
  0.00000000E+00  0.00000000E+00  0.12690182E+02  0.50000000E+00  0.00000000E+00
  0.00000000E+00  0.00000000E+00  0.13666350E+02  0.50000000E+00  0.00000000E+00
  0.00000000E+00  0.00000000E+00  0.14642518E+02  0.50000000E+00  0.00000000E+00
  0.00000000E+00  0.00000000E+00  0.15618686E+02  0.50000000E+00  0.00000000E+00
  0.00000000E+00  0.00000000E+00  0.16594854E+02  0.50000000E+00  0.00000000E+00
  0.00000000E+00  0.00000000E+00  0.17571022E+02  0.50000000E+00  0.00000000E+00
  0.00000000E+00  0.00000000E+00  0.18547190E+02  0.50000000E+00  0.00000000E+00
  0.00000000E+00  0.00000000E+00  0.19523358E+02  0.50000000E+00  0.00000000E+00
  0.00000000E+00  0.00000000E+00  0.20499525E+02  0.49951915E+00  0.40227341E-09
  0.00000000E+00  0.24878049E+01  0.00000000E+00  0.50000000E+00  0.00000000E+00
  0.00000000E+00  0.24878049E+01  0.97616993E+00  0.50000000E+00  0.00000000E+00
  0.00000000E+00  0.24878049E+01  0.19523399E+01  0.50000000E+00  0.00000000E+00
  0.00000000E+00  0.24878049E+01  0.29285098E+01  0.50000000E+00  0.00000000E+00
  0.00000000E+00  0.24878049E+01  0.39046797E+01  0.50000000E+00  0.00000000E+00
  0.00000000E+00  0.24878049E+01  0.48808497E+01  0.50000000E+00  0.00000000E+00
  0.00000000E+00  0.24878049E+01  0.58570196E+01  0.50000000E+00  0.00000000E+00
  0.00000000E+00  0.24878049E+01  0.68331895E+01  0.50000000E+00  0.00000000E+00
  0.00000000E+00  0.24878049E+01  0.78093595E+01  0.50000000E+00  0.00000000E+00
  0.00000000E+00  0.24878049E+01  0.87855294E+01  0.50000000E+00  0.00000000E+00
  0.00000000E+00  0.24878049E+01  0.97616993E+01  0.50000000E+00  0.00000000E+00
  0.00000000E+00  0.24878049E+01  0.10737869E+02  0.50000000E+00  0.00000000E+00
  0.00000000E+00  0.24878049E+01  0.11714039E+02  0.50000000E+00  0.00000000E+00
  0.00000000E+00  0.24878049E+01  0.12690209E+02  0.50000000E+00  0.00000000E+00
  0.00000000E+00  0.24878049E+01  0.13666379E+02  0.50000000E+00  0.00000000E+00
  0.00000000E+00  0.24878049E+01  0.14642549E+02  0.50000000E+00  0.00000000E+00
  0.00000000E+00  0.24878049E+01  0.15618719E+02  0.50000000E+00  0.00000000E+00
  0.00000000E+00  0.24878049E+01  0.16594889E+02  0.50000000E+00  0.00000000E+00
  0.00000000E+00  0.24878049E+01  0.17571059E+02  0.50000000E+00  0.00000000E+00
  0.00000000E+00  0.24878049E+01  0.18547229E+02  0.50000000E+00  0.00000000E+00
  0.00000000E+00  0.24878049E+01  0.19523399E+02  0.50000000E+00  0.00000000E+00
  0.00000000E+00  0.24878049E+01  0.20499569E+02  0.49956286E+00  0.36224778E-09
  0.00000000E+00  0.49756098E+01  0.00000000E+00  0.50000000E+00  0.00000000E+00
  0.00000000E+00  0.49756098E+01  0.97617424E+00  0.50000000E+00  0.00000000E+00
  0.00000000E+00  0.49756098E+01  0.19523485E+01  0.50000000E+00  0.00000000E+00
  0.00000000E+00  0.49756098E+01  0.29285227E+01  0.50000000E+00  0.00000000E+00
  0.00000000E+00  0.49756098E+01  0.39046969E+01  0.50000000E+00  0.00000000E+00
  0.00000000E+00  0.49756098E+01  0.48808712E+01  0.50000000E+00  0.00000000E+00
  0.00000000E+00  0.49756098E+01  0.58570454E+01  0.50000000E+00  0.00000000E+00
  0.00000000E+00  0.49756098E+01  0.68332197E+01  0.50000000E+00  0.00000000E+00
  0.00000000E+00  0.49756098E+01  0.78093939E+01  0.50000000E+00  0.00000000E+00
  0.00000000E+00  0.49756098E+01  0.87855681E+01  0.50000000E+00  0.00000000E+00
  0.00000000E+00  0.49756098E+01  0.97617424E+01  0.50000000E+00  0.00000000E+00
  0.00000000E+00  0.49756098E+01  0.10737917E+02  0.50000000E+00  0.00000000E+00
  0.00000000E+00  0.49756098E+01  0.11714091E+02  0.50000000E+00  0.00000000E+00
  0.00000000E+00  0.49756098E+01  0.12690265E+02  0.50000000E+00  0.00000000E+00
  0.00000000E+00  0.49756098E+01  0.13666439E+02  0.50000000E+00  0.00000000E+00
  0.00000000E+00  0.49756098E+01  0.14642614E+02  0.50000000E+00  0.00000000E+00
  0.00000000E+00  0.49756098E+01  0.15618788E+02  0.50000000E+00  0.00000000E+00
  0.00000000E+00  0.49756098E+01  0.16594962E+02  0.50000000E+00  0.00000000E+00
  0.00000000E+00  0.49756098E+01  0.17571136E+02  0.50000000E+00  0.00000000E+00
  0.00000000E+00  0.49756098E+01  0.18547310E+02  0.50000000E+00  0.00000000E+00
  0.00000000E+00  0.49756098E+01  0.19523485E+02  0.50000000E+00  0.00000000E+00
  0.00000000E+00  0.49756098E+01  0.20499659E+02  0.49965415E+00  0.34199840E-09
  0.00000000E+00  0.74634146E+01  0.00000000E+00  0.50000000E+00  0.00000000E+00
  0.00000000E+00  0.74634146E+01  0.97617795E+00  0.50000000E+00  0.00000000E+00
  0.00000000E+00  0.74634146E+01  0.19523559E+01  0.50000000E+00  0.00000000E+00
  0.00000000E+00  0.74634146E+01  0.29285338E+01  0.50000000E+00  0.00000000E+00
  0.00000000E+00  0.74634146E+01  0.39047118E+01  0.50000000E+00  0.00000000E+00
  0.00000000E+00  0.74634146E+01  0.48808897E+01  0.50000000E+00  0.00000000E+00
  0.00000000E+00  0.74634146E+01  0.58570677E+01  0.50000000E+00  0.00000000E+00
  0.00000000E+00  0.74634146E+01  0.68332456E+01  0.50000000E+00  0.00000000E+00
  0.00000000E+00  0.74634146E+01  0.78094236E+01  0.50000000E+00  0.00000000E+00
  0.00000000E+00  0.74634146E+01  0.87856015E+01  0.50000000E+00  0.00000000E+00
  0.00000000E+00  0.74634146E+01  0.97617795E+01  0.50000000E+00  0.00000000E+00
  0.00000000E+00  0.74634146E+01  0.10737957E+02  0.50000000E+00  0.00000000E+00
  0.00000000E+00  0.74634146E+01  0.11714135E+02  0.50000000E+00  0.00000000E+00
  0.00000000E+00  0.74634146E+01  0.12690313E+02  0.50000000E+00  0.00000000E+00
  0.00000000E+00  0.74634146E+01  0.13666491E+02  0.50000000E+00  0.00000000E+00
  0.00000000E+00  0.74634146E+01  0.14642669E+02  0.50000000E+00  0.00000000E+00
  0.00000000E+00  0.74634146E+01  0.15618847E+02  0.50000000E+00  0.00000000E+00
  0.00000000E+00  0.74634146E+01  0.16595025E+02  0.50000000E+00  0.00000000E+00
  0.00000000E+00  0.74634146E+01  0.17571203E+02  0.50000000E+00  0.00000000E+00
  0.00000000E+00  0.74634146E+01  0.18547381E+02  0.50000000E+00  0.00000000E+00
  0.00000000E+00  0.74634146E+01  0.19523559E+02  0.50000000E+00  0.00000000E+00
  0.00000000E+00  0.74634146E+01  0.20499737E+02  0.49973261E+00  0.49396401E-09
  0.00000000E+00  0.99512195E+01  0.00000000E+00  0.50000000E+00  0.00000000E+00
  0.00000000E+00  0.99512195E+01  0.97617487E+00  0.50000000E+00  0.00000000E+00
  0.00000000E+00  0.99512195E+01  0.19523497E+01  0.50000000E+00  0.00000000E+00
  0.00000000E+00  0.99512195E+01  0.29285246E+01  0.50000000E+00  0.00000000E+00
  0.00000000E+00  0.99512195E+01  0.39046995E+01  0.50000000E+00  0.00000000E+00
  0.00000000E+00  0.99512195E+01  0.48808743E+01  0.50000000E+00  0.00000000E+00
  0.00000000E+00  0.99512195E+01  0.58570492E+01  0.50000000E+00  0.00000000E+00
  0.00000000E+00  0.99512195E+01  0.68332241E+01  0.50000000E+00  0.00000000E+00
  0.00000000E+00  0.99512195E+01  0.78093989E+01  0.50000000E+00  0.00000000E+00
  0.00000000E+00  0.99512195E+01  0.87855738E+01  0.50000000E+00  0.00000000E+00
  0.00000000E+00  0.99512195E+01  0.97617487E+01  0.50000000E+00  0.00000000E+00
  0.00000000E+00  0.99512195E+01  0.10737924E+02  0.50000000E+00  0.00000000E+00
  0.00000000E+00  0.99512195E+01  0.11714098E+02  0.50000000E+00  0.00000000E+00
  0.00000000E+00  0.99512195E+01  0.12690273E+02  0.50000000E+00  0.00000000E+00
  0.00000000E+00  0.99512195E+01  0.13666448E+02  0.50000000E+00  0.00000000E+00
  0.00000000E+00  0.99512195E+01  0.14642623E+02  0.50000000E+00  0.00000000E+00
  0.00000000E+00  0.99512195E+01  0.15618798E+02  0.50000000E+00  0.00000000E+00
  0.00000000E+00  0.99512195E+01  0.16594973E+02  0.50000000E+00  0.00000000E+00
  0.00000000E+00  0.99512195E+01  0.17571148E+02  0.50000000E+00  0.00000000E+00
  0.00000000E+00  0.99512195E+01  0.18547322E+02  0.50000000E+00  0.00000000E+00
  0.00000000E+00  0.99512195E+01  0.19523497E+02  0.50000000E+00  0.00000000E+00
  0.00000000E+00  0.99512195E+01  0.20499672E+02  0.49966683E+00  0.59297970E-09
  0.00000000E+00  0.12439024E+02  0.00000000E+00  0.50000000E+00  0.00000000E+00
  0.00000000E+00  0.12439024E+02  0.97617887E+00  0.50000000E+00  0.00000000E+00
  0.00000000E+00  0.12439024E+02  0.19523577E+01  0.50000000E+00  0.00000000E+00
  0.00000000E+00  0.12439024E+02  0.29285366E+01  0.50000000E+00  0.00000000E+00
  0.00000000E+00  0.12439024E+02  0.39047155E+01  0.50000000E+00  0.00000000E+00
  0.00000000E+00  0.12439024E+02  0.48808943E+01  0.50000000E+00  0.00000000E+00
  0.00000000E+00  0.12439024E+02  0.58570732E+01  0.50000000E+00  0.00000000E+00
  0.00000000E+00  0.12439024E+02  0.68332521E+01  0.50000000E+00  0.00000000E+00
  0.00000000E+00  0.12439024E+02  0.78094309E+01  0.50000000E+00  0.00000000E+00
  0.00000000E+00  0.12439024E+02  0.87856098E+01  0.50000000E+00  0.00000000E+00
  0.00000000E+00  0.12439024E+02  0.97617887E+01  0.50000000E+00  0.00000000E+00
  0.00000000E+00  0.12439024E+02  0.10737968E+02  0.50000000E+00  0.00000000E+00
  0.00000000E+00  0.12439024E+02  0.11714146E+02  0.50000000E+00  0.00000000E+00
  0.00000000E+00  0.12439024E+02  0.12690325E+02  0.50000000E+00  0.00000000E+00
  0.00000000E+00  0.12439024E+02  0.13666504E+02  0.50000000E+00  0.00000000E+00
  0.00000000E+00  0.12439024E+02  0.14642683E+02  0.50000000E+00  0.00000000E+00
  0.00000000E+00  0.12439024E+02  0.15618862E+02  0.50000000E+00  0.00000000E+00
  0.00000000E+00  0.12439024E+02  0.16595041E+02  0.50000000E+00  0.00000000E+00
  0.00000000E+00  0.12439024E+02  0.17571220E+02  0.50000000E+00  0.00000000E+00
  0.00000000E+00  0.12439024E+02  0.18547398E+02  0.50000000E+00  0.00000000E+00
  0.00000000E+00  0.12439024E+02  0.19523577E+02  0.50000000E+00  0.00000000E+00
  0.00000000E+00  0.12439024E+02  0.20499756E+02  0.49975056E+00  0.47544281E-09
  0.00000000E+00  0.14926829E+02  0.00000000E+00  0.50000000E+00  0.00000000E+00
  0.00000000E+00  0.14926829E+02  0.97618711E+00  0.50000000E+00  0.00000000E+00
  0.00000000E+00  0.14926829E+02  0.19523742E+01  0.50000000E+00  0.00000000E+00
  0.00000000E+00  0.14926829E+02  0.29285613E+01  0.50000000E+00  0.00000000E+00
  0.00000000E+00  0.14926829E+02  0.39047485E+01  0.50000000E+00  0.00000000E+00
  0.00000000E+00  0.14926829E+02  0.48809356E+01  0.50000000E+00  0.00000000E+00
  0.00000000E+00  0.14926829E+02  0.58571227E+01  0.50000000E+00  0.00000000E+00
  0.00000000E+00  0.14926829E+02  0.68333098E+01  0.50000000E+00  0.00000000E+00
  0.00000000E+00  0.14926829E+02  0.78094969E+01  0.50000000E+00  0.00000000E+00
  0.00000000E+00  0.14926829E+02  0.87856840E+01  0.50000000E+00  0.00000000E+00
  0.00000000E+00  0.14926829E+02  0.97618711E+01  0.50000000E+00  0.00000000E+00
  0.00000000E+00  0.14926829E+02  0.10738058E+02  0.50000000E+00  0.00000000E+00
  0.00000000E+00  0.14926829E+02  0.11714245E+02  0.50000000E+00  0.00000000E+00
  0.00000000E+00  0.14926829E+02  0.12690432E+02  0.50000000E+00  0.00000000E+00
  0.00000000E+00  0.14926829E+02  0.13666620E+02  0.50000000E+00  0.00000000E+00
  0.00000000E+00  0.14926829E+02  0.14642807E+02  0.50000000E+00  0.00000000E+00
  0.00000000E+00  0.14926829E+02  0.15618994E+02  0.50000000E+00  0.00000000E+00
  0.00000000E+00  0.14926829E+02  0.16595181E+02  0.50000000E+00  0.00000000E+00
  0.00000000E+00  0.14926829E+02  0.17571368E+02  0.50000000E+00  0.00000000E+00
  0.00000000E+00  0.14926829E+02  0.18547555E+02  0.50000000E+00  0.00000000E+00
  0.00000000E+00  0.14926829E+02  0.19523742E+02  0.50000000E+00  0.00000000E+00
  0.00000000E+00  0.14926829E+02  0.20499929E+02  0.49992195E+00  0.32582329E-09
  0.00000000E+00  0.17414634E+02  0.00000000E+00  0.50000000E+00  0.00000000E+00
  0.00000000E+00  0.17414634E+02  0.97617449E+00  0.50000000E+00  0.00000000E+00
  0.00000000E+00  0.17414634E+02  0.19523490E+01  0.50000000E+00  0.00000000E+00
  0.00000000E+00  0.17414634E+02  0.29285235E+01  0.50000000E+00  0.00000000E+00
  0.00000000E+00  0.17414634E+02  0.39046980E+01  0.50000000E+00  0.00000000E+00
  0.00000000E+00  0.17414634E+02  0.48808725E+01  0.50000000E+00  0.00000000E+00
  0.00000000E+00  0.17414634E+02  0.58570469E+01  0.50000000E+00  0.00000000E+00
  0.00000000E+00  0.17414634E+02  0.68332214E+01  0.50000000E+00  0.00000000E+00
  0.00000000E+00  0.17414634E+02  0.78093959E+01  0.50000000E+00  0.00000000E+00
  0.00000000E+00  0.17414634E+02  0.87855704E+01  0.50000000E+00  0.00000000E+00
  0.00000000E+00  0.17414634E+02  0.97617449E+01  0.50000000E+00  0.00000000E+00
  0.00000000E+00  0.17414634E+02  0.10737919E+02  0.50000000E+00  0.00000000E+00
  0.00000000E+00  0.17414634E+02  0.11714094E+02  0.50000000E+00  0.00000000E+00
  0.00000000E+00  0.17414634E+02  0.12690268E+02  0.50000000E+00  0.00000000E+00
  0.00000000E+00  0.17414634E+02  0.13666443E+02  0.50000000E+00  0.00000000E+00
  0.00000000E+00  0.17414634E+02  0.14642617E+02  0.50000000E+00  0.00000000E+00
  0.00000000E+00  0.17414634E+02  0.15618792E+02  0.50000000E+00  0.00000000E+00
  0.00000000E+00  0.17414634E+02  0.16594966E+02  0.50000000E+00  0.00000000E+00
  0.00000000E+00  0.17414634E+02  0.17571141E+02  0.50000000E+00  0.00000000E+00
  0.00000000E+00  0.17414634E+02  0.18547315E+02  0.50000000E+00  0.00000000E+00
  0.00000000E+00  0.17414634E+02  0.19523490E+02  0.50000000E+00  0.00000000E+00
  0.00000000E+00  0.17414634E+02  0.20499664E+02  0.49965329E+00  0.41180129E-09
  0.00000000E+00  0.19902439E+02  0.00000000E+00  0.50000000E+00  0.00000000E+00
  0.00000000E+00  0.19902439E+02  0.97617593E+00  0.50000000E+00  0.00000000E+00
  0.00000000E+00  0.19902439E+02  0.19523519E+01  0.50000000E+00  0.00000000E+00
  0.00000000E+00  0.19902439E+02  0.29285278E+01  0.50000000E+00  0.00000000E+00
  0.00000000E+00  0.19902439E+02  0.39047037E+01  0.50000000E+00  0.00000000E+00
  0.00000000E+00  0.19902439E+02  0.48808796E+01  0.50000000E+00  0.00000000E+00
  0.00000000E+00  0.19902439E+02  0.58570556E+01  0.50000000E+00  0.00000000E+00
  0.00000000E+00  0.19902439E+02  0.68332315E+01  0.50000000E+00  0.00000000E+00
  0.00000000E+00  0.19902439E+02  0.78094074E+01  0.50000000E+00  0.00000000E+00
  0.00000000E+00  0.19902439E+02  0.87855834E+01  0.50000000E+00  0.00000000E+00
  0.00000000E+00  0.19902439E+02  0.97617593E+01  0.50000000E+00  0.00000000E+00
  0.00000000E+00  0.19902439E+02  0.10737935E+02  0.50000000E+00  0.00000000E+00
  0.00000000E+00  0.19902439E+02  0.11714111E+02  0.50000000E+00  0.00000000E+00
  0.00000000E+00  0.19902439E+02  0.12690287E+02  0.50000000E+00  0.00000000E+00
  0.00000000E+00  0.19902439E+02  0.13666463E+02  0.50000000E+00  0.00000000E+00
  0.00000000E+00  0.19902439E+02  0.14642639E+02  0.50000000E+00  0.00000000E+00
  0.00000000E+00  0.19902439E+02  0.15618815E+02  0.50000000E+00  0.00000000E+00
  0.00000000E+00  0.19902439E+02  0.16594991E+02  0.50000000E+00  0.00000000E+00
  0.00000000E+00  0.19902439E+02  0.17571167E+02  0.50000000E+00  0.00000000E+00
  0.00000000E+00  0.19902439E+02  0.18547343E+02  0.50000000E+00  0.00000000E+00
  0.00000000E+00  0.19902439E+02  0.19523519E+02  0.50000000E+00  0.00000000E+00
  0.00000000E+00  0.19902439E+02  0.20499695E+02  0.49968124E+00  0.50675775E-09
  0.00000000E+00  0.22390244E+02  0.00000000E+00  0.50000000E+00  0.00000000E+00
  0.00000000E+00  0.22390244E+02  0.97613077E+00  0.50000000E+00  0.00000000E+00
  0.00000000E+00  0.22390244E+02  0.19522615E+01  0.50000000E+00  0.00000000E+00
  0.00000000E+00  0.22390244E+02  0.29283923E+01  0.50000000E+00  0.00000000E+00
  0.00000000E+00  0.22390244E+02  0.39045231E+01  0.50000000E+00  0.00000000E+00
  0.00000000E+00  0.22390244E+02  0.48806539E+01  0.50000000E+00  0.00000000E+00
  0.00000000E+00  0.22390244E+02  0.58567846E+01  0.50000000E+00  0.00000000E+00
  0.00000000E+00  0.22390244E+02  0.68329154E+01  0.50000000E+00  0.00000000E+00
  0.00000000E+00  0.22390244E+02  0.78090462E+01  0.50000000E+00  0.00000000E+00
  0.00000000E+00  0.22390244E+02  0.87851770E+01  0.50000000E+00  0.00000000E+00
  0.00000000E+00  0.22390244E+02  0.97613077E+01  0.50000000E+00  0.00000000E+00
  0.00000000E+00  0.22390244E+02  0.10737439E+02  0.50000000E+00  0.00000000E+00
  0.00000000E+00  0.22390244E+02  0.11713569E+02  0.50000000E+00  0.00000000E+00
  0.00000000E+00  0.22390244E+02  0.12689700E+02  0.50000000E+00  0.00000000E+00
  0.00000000E+00  0.22390244E+02  0.13665831E+02  0.50000000E+00  0.00000000E+00
  0.00000000E+00  0.22390244E+02  0.14641962E+02  0.50000000E+00  0.00000000E+00
  0.00000000E+00  0.22390244E+02  0.15618092E+02  0.50000000E+00  0.00000000E+00
  0.00000000E+00  0.22390244E+02  0.16594223E+02  0.50000000E+00  0.00000000E+00
  0.00000000E+00  0.22390244E+02  0.17570354E+02  0.50000000E+00  0.00000000E+00
  0.00000000E+00  0.22390244E+02  0.18546485E+02  0.50000000E+00  0.00000000E+00
  0.00000000E+00  0.22390244E+02  0.19522615E+02  0.50000000E+00  0.00000000E+00
  0.00000000E+00  0.22390244E+02  0.20498746E+02  0.49872875E+00  0.31530743E-09
  0.00000000E+00  0.24878049E+02  0.00000000E+00  0.50000000E+00  0.00000000E+00
  0.00000000E+00  0.24878049E+02  0.97612072E+00  0.50000000E+00  0.00000000E+00
  0.00000000E+00  0.24878049E+02  0.19522414E+01  0.50000000E+00  0.00000000E+00
  0.00000000E+00  0.24878049E+02  0.29283622E+01  0.50000000E+00  0.00000000E+00
  0.00000000E+00  0.24878049E+02  0.39044829E+01  0.50000000E+00  0.00000000E+00
  0.00000000E+00  0.24878049E+02  0.48806036E+01  0.50000000E+00  0.00000000E+00
  0.00000000E+00  0.24878049E+02  0.58567243E+01  0.50000000E+00  0.00000000E+00
  0.00000000E+00  0.24878049E+02  0.68328450E+01  0.50000000E+00  0.00000000E+00
  0.00000000E+00  0.24878049E+02  0.78089658E+01  0.50000000E+00  0.00000000E+00
  0.00000000E+00  0.24878049E+02  0.87850865E+01  0.50000000E+00  0.00000000E+00
  0.00000000E+00  0.24878049E+02  0.97612072E+01  0.50000000E+00  0.00000000E+00
  0.00000000E+00  0.24878049E+02  0.10737328E+02  0.50000000E+00  0.00000000E+00
  0.00000000E+00  0.24878049E+02  0.11713449E+02  0.50000000E+00  0.00000000E+00
  0.00000000E+00  0.24878049E+02  0.12689569E+02  0.50000000E+00  0.00000000E+00
  0.00000000E+00  0.24878049E+02  0.13665690E+02  0.50000000E+00  0.00000000E+00
  0.00000000E+00  0.24878049E+02  0.14641811E+02  0.50000000E+00  0.00000000E+00
  0.00000000E+00  0.24878049E+02  0.15617932E+02  0.50000000E+00  0.00000000E+00
  0.00000000E+00  0.24878049E+02  0.16594052E+02  0.50000000E+00  0.00000000E+00
  0.00000000E+00  0.24878049E+02  0.17570173E+02  0.50000000E+00  0.00000000E+00
  0.00000000E+00  0.24878049E+02  0.18546294E+02  0.50000000E+00  0.00000000E+00
  0.00000000E+00  0.24878049E+02  0.19522414E+02  0.50000000E+00  0.00000000E+00
  0.00000000E+00  0.24878049E+02  0.20498535E+02  0.49851883E+00  0.11659811E-09
  0.00000000E+00  0.27365854E+02  0.00000000E+00  0.50000000E+00  0.00000000E+00
  0.00000000E+00  0.27365854E+02  0.97612085E+00  0.50000000E+00  0.00000000E+00
  0.00000000E+00  0.27365854E+02  0.19522417E+01  0.50000000E+00  0.00000000E+00
  0.00000000E+00  0.27365854E+02  0.29283625E+01  0.50000000E+00  0.00000000E+00
  0.00000000E+00  0.27365854E+02  0.39044834E+01  0.50000000E+00  0.00000000E+00
  0.00000000E+00  0.27365854E+02  0.48806042E+01  0.50000000E+00  0.00000000E+00
  0.00000000E+00  0.27365854E+02  0.58567251E+01  0.50000000E+00  0.00000000E+00
  0.00000000E+00  0.27365854E+02  0.68328459E+01  0.50000000E+00  0.00000000E+00
  0.00000000E+00  0.27365854E+02  0.78089668E+01  0.50000000E+00  0.00000000E+00
  0.00000000E+00  0.27365854E+02  0.87850876E+01  0.50000000E+00  0.00000000E+00
  0.00000000E+00  0.27365854E+02  0.97612085E+01  0.50000000E+00  0.00000000E+00
  0.00000000E+00  0.27365854E+02  0.10737329E+02  0.50000000E+00  0.00000000E+00
  0.00000000E+00  0.27365854E+02  0.11713450E+02  0.50000000E+00  0.00000000E+00
  0.00000000E+00  0.27365854E+02  0.12689571E+02  0.50000000E+00  0.00000000E+00
  0.00000000E+00  0.27365854E+02  0.13665692E+02  0.50000000E+00  0.00000000E+00
  0.00000000E+00  0.27365854E+02  0.14641813E+02  0.50000000E+00  0.00000000E+00
  0.00000000E+00  0.27365854E+02  0.15617934E+02  0.50000000E+00  0.00000000E+00
  0.00000000E+00  0.27365854E+02  0.16594054E+02  0.50000000E+00  0.00000000E+00
  0.00000000E+00  0.27365854E+02  0.17570175E+02  0.50000000E+00  0.00000000E+00
  0.00000000E+00  0.27365854E+02  0.18546296E+02  0.50000000E+00  0.00000000E+00
  0.00000000E+00  0.27365854E+02  0.19522417E+02  0.50000000E+00  0.00000000E+00
  0.00000000E+00  0.27365854E+02  0.20498538E+02  0.49852235E+00  0.60966963E-10
  0.00000000E+00  0.29853659E+02  0.00000000E+00  0.50000000E+00  0.00000000E+00
  0.00000000E+00  0.29853659E+02  0.97611696E+00  0.50000000E+00  0.00000000E+00
  0.00000000E+00  0.29853659E+02  0.19522339E+01  0.50000000E+00  0.00000000E+00
  0.00000000E+00  0.29853659E+02  0.29283509E+01  0.50000000E+00  0.00000000E+00
  0.00000000E+00  0.29853659E+02  0.39044678E+01  0.50000000E+00  0.00000000E+00
  0.00000000E+00  0.29853659E+02  0.48805848E+01  0.50000000E+00  0.00000000E+00
  0.00000000E+00  0.29853659E+02  0.58567018E+01  0.50000000E+00  0.00000000E+00
  0.00000000E+00  0.29853659E+02  0.68328187E+01  0.50000000E+00  0.00000000E+00
  0.00000000E+00  0.29853659E+02  0.78089357E+01  0.50000000E+00  0.00000000E+00
  0.00000000E+00  0.29853659E+02  0.87850526E+01  0.50000000E+00  0.00000000E+00
  0.00000000E+00  0.29853659E+02  0.97611696E+01  0.50000000E+00  0.00000000E+00
  0.00000000E+00  0.29853659E+02  0.10737287E+02  0.50000000E+00  0.00000000E+00
  0.00000000E+00  0.29853659E+02  0.11713404E+02  0.50000000E+00  0.00000000E+00
  0.00000000E+00  0.29853659E+02  0.12689520E+02  0.50000000E+00  0.00000000E+00
  0.00000000E+00  0.29853659E+02  0.13665637E+02  0.50000000E+00  0.00000000E+00
  0.00000000E+00  0.29853659E+02  0.14641754E+02  0.50000000E+00  0.00000000E+00
  0.00000000E+00  0.29853659E+02  0.15617871E+02  0.50000000E+00  0.00000000E+00
  0.00000000E+00  0.29853659E+02  0.16593988E+02  0.50000000E+00  0.00000000E+00
  0.00000000E+00  0.29853659E+02  0.17570105E+02  0.50000000E+00  0.00000000E+00
  0.00000000E+00  0.29853659E+02  0.18546222E+02  0.50000000E+00  0.00000000E+00
  0.00000000E+00  0.29853659E+02  0.19522339E+02  0.50000000E+00  0.00000000E+00
  0.00000000E+00  0.29853659E+02  0.20498456E+02  0.49844026E+00  0.68315570E-10
  0.00000000E+00  0.32341463E+02  0.00000000E+00  0.50000000E+00  0.00000000E+00
  0.00000000E+00  0.32341463E+02  0.97611779E+00  0.50000000E+00  0.00000000E+00
  0.00000000E+00  0.32341463E+02  0.19522356E+01  0.50000000E+00  0.00000000E+00
  0.00000000E+00  0.32341463E+02  0.29283534E+01  0.50000000E+00  0.00000000E+00
  0.00000000E+00  0.32341463E+02  0.39044711E+01  0.50000000E+00  0.00000000E+00
  0.00000000E+00  0.32341463E+02  0.48805889E+01  0.50000000E+00  0.00000000E+00
  0.00000000E+00  0.32341463E+02  0.58567067E+01  0.50000000E+00  0.00000000E+00
  0.00000000E+00  0.32341463E+02  0.68328245E+01  0.50000000E+00  0.00000000E+00
  0.00000000E+00  0.32341463E+02  0.78089423E+01  0.50000000E+00  0.00000000E+00
  0.00000000E+00  0.32341463E+02  0.87850601E+01  0.50000000E+00  0.00000000E+00
  0.00000000E+00  0.32341463E+02  0.97611779E+01  0.50000000E+00  0.00000000E+00
  0.00000000E+00  0.32341463E+02  0.10737296E+02  0.50000000E+00  0.00000000E+00
  0.00000000E+00  0.32341463E+02  0.11713413E+02  0.50000000E+00  0.00000000E+00
  0.00000000E+00  0.32341463E+02  0.12689531E+02  0.50000000E+00  0.00000000E+00
  0.00000000E+00  0.32341463E+02  0.13665649E+02  0.50000000E+00  0.00000000E+00
  0.00000000E+00  0.32341463E+02  0.14641767E+02  0.50000000E+00  0.00000000E+00
  0.00000000E+00  0.32341463E+02  0.15617885E+02  0.50000000E+00  0.00000000E+00
  0.00000000E+00  0.32341463E+02  0.16594002E+02  0.50000000E+00  0.00000000E+00
  0.00000000E+00  0.32341463E+02  0.17570120E+02  0.50000000E+00  0.00000000E+00
  0.00000000E+00  0.32341463E+02  0.18546238E+02  0.50000000E+00  0.00000000E+00
  0.00000000E+00  0.32341463E+02  0.19522356E+02  0.50000000E+00  0.00000000E+00
  0.00000000E+00  0.32341463E+02  0.20498474E+02  0.49845786E+00  0.90574837E-10
  0.00000000E+00  0.34829268E+02  0.00000000E+00  0.50000000E+00  0.00000000E+00
  0.00000000E+00  0.34829268E+02  0.97612736E+00  0.50000000E+00  0.00000000E+00
  0.00000000E+00  0.34829268E+02  0.19522547E+01  0.50000000E+00  0.00000000E+00
  0.00000000E+00  0.34829268E+02  0.29283821E+01  0.50000000E+00  0.00000000E+00
  0.00000000E+00  0.34829268E+02  0.39045094E+01  0.50000000E+00  0.00000000E+00
  0.00000000E+00  0.34829268E+02  0.48806368E+01  0.50000000E+00  0.00000000E+00
  0.00000000E+00  0.34829268E+02  0.58567642E+01  0.50000000E+00  0.00000000E+00
  0.00000000E+00  0.34829268E+02  0.68328915E+01  0.50000000E+00  0.00000000E+00
  0.00000000E+00  0.34829268E+02  0.78090189E+01  0.50000000E+00  0.00000000E+00
  0.00000000E+00  0.34829268E+02  0.87851462E+01  0.50000000E+00  0.00000000E+00
  0.00000000E+00  0.34829268E+02  0.97612736E+01  0.50000000E+00  0.00000000E+00
  0.00000000E+00  0.34829268E+02  0.10737401E+02  0.50000000E+00  0.00000000E+00
  0.00000000E+00  0.34829268E+02  0.11713528E+02  0.50000000E+00  0.00000000E+00
  0.00000000E+00  0.34829268E+02  0.12689656E+02  0.50000000E+00  0.00000000E+00
  0.00000000E+00  0.34829268E+02  0.13665783E+02  0.50000000E+00  0.00000000E+00
  0.00000000E+00  0.34829268E+02  0.14641910E+02  0.50000000E+00  0.00000000E+00
  0.00000000E+00  0.34829268E+02  0.15618038E+02  0.50000000E+00  0.00000000E+00
  0.00000000E+00  0.34829268E+02  0.16594165E+02  0.50000000E+00  0.00000000E+00
  0.00000000E+00  0.34829268E+02  0.17570292E+02  0.50000000E+00  0.00000000E+00
  0.00000000E+00  0.34829268E+02  0.18546420E+02  0.50000000E+00  0.00000000E+00
  0.00000000E+00  0.34829268E+02  0.19522547E+02  0.50000000E+00  0.00000000E+00
  0.00000000E+00  0.34829268E+02  0.20498675E+02  0.49866052E+00  0.11716110E-09
  0.00000000E+00  0.37317073E+02  0.00000000E+00  0.50000000E+00  0.00000000E+00
  0.00000000E+00  0.37317073E+02  0.97614269E+00  0.50000000E+00  0.00000000E+00
  0.00000000E+00  0.37317073E+02  0.19522854E+01  0.50000000E+00  0.00000000E+00
  0.00000000E+00  0.37317073E+02  0.29284281E+01  0.50000000E+00  0.00000000E+00
  0.00000000E+00  0.37317073E+02  0.39045707E+01  0.50000000E+00  0.00000000E+00
  0.00000000E+00  0.37317073E+02  0.48807134E+01  0.50000000E+00  0.00000000E+00
  0.00000000E+00  0.37317073E+02  0.58568561E+01  0.50000000E+00  0.00000000E+00
  0.00000000E+00  0.37317073E+02  0.68329988E+01  0.50000000E+00  0.00000000E+00
  0.00000000E+00  0.37317073E+02  0.78091415E+01  0.50000000E+00  0.00000000E+00
  0.00000000E+00  0.37317073E+02  0.87852842E+01  0.50000000E+00  0.00000000E+00
  0.00000000E+00  0.37317073E+02  0.97614269E+01  0.50000000E+00  0.00000000E+00
  0.00000000E+00  0.37317073E+02  0.10737570E+02  0.50000000E+00  0.00000000E+00
  0.00000000E+00  0.37317073E+02  0.11713712E+02  0.50000000E+00  0.00000000E+00
  0.00000000E+00  0.37317073E+02  0.12689855E+02  0.50000000E+00  0.00000000E+00
  0.00000000E+00  0.37317073E+02  0.13665998E+02  0.50000000E+00  0.00000000E+00
  0.00000000E+00  0.37317073E+02  0.14642140E+02  0.50000000E+00  0.00000000E+00
  0.00000000E+00  0.37317073E+02  0.15618283E+02  0.50000000E+00  0.00000000E+00
  0.00000000E+00  0.37317073E+02  0.16594426E+02  0.50000000E+00  0.00000000E+00
  0.00000000E+00  0.37317073E+02  0.17570568E+02  0.50000000E+00  0.00000000E+00
  0.00000000E+00  0.37317073E+02  0.18546711E+02  0.50000000E+00  0.00000000E+00
  0.00000000E+00  0.37317073E+02  0.19522854E+02  0.50000000E+00  0.00000000E+00
  0.00000000E+00  0.37317073E+02  0.20498996E+02  0.49898466E+00  0.16896526E-09
  0.00000000E+00  0.39804878E+02  0.00000000E+00  0.50000000E+00  0.00000000E+00
  0.00000000E+00  0.39804878E+02  0.97612883E+00  0.50000000E+00  0.00000000E+00
  0.00000000E+00  0.39804878E+02  0.19522577E+01  0.50000000E+00  0.00000000E+00
  0.00000000E+00  0.39804878E+02  0.29283865E+01  0.50000000E+00  0.00000000E+00
  0.00000000E+00  0.39804878E+02  0.39045153E+01  0.50000000E+00  0.00000000E+00
  0.00000000E+00  0.39804878E+02  0.48806441E+01  0.50000000E+00  0.00000000E+00
  0.00000000E+00  0.39804878E+02  0.58567730E+01  0.50000000E+00  0.00000000E+00
  0.00000000E+00  0.39804878E+02  0.68329018E+01  0.50000000E+00  0.00000000E+00
  0.00000000E+00  0.39804878E+02  0.78090306E+01  0.50000000E+00  0.00000000E+00
  0.00000000E+00  0.39804878E+02  0.87851594E+01  0.50000000E+00  0.00000000E+00
  0.00000000E+00  0.39804878E+02  0.97612883E+01  0.50000000E+00  0.00000000E+00
  0.00000000E+00  0.39804878E+02  0.10737417E+02  0.50000000E+00  0.00000000E+00
  0.00000000E+00  0.39804878E+02  0.11713546E+02  0.50000000E+00  0.00000000E+00
  0.00000000E+00  0.39804878E+02  0.12689675E+02  0.50000000E+00  0.00000000E+00
  0.00000000E+00  0.39804878E+02  0.13665804E+02  0.50000000E+00  0.00000000E+00
  0.00000000E+00  0.39804878E+02  0.14641932E+02  0.50000000E+00  0.00000000E+00