title="2d K section "
variables="x","z","Kx","logKx","Kz","logKz","porosity"
zone i=    22, j=    42,T="Initial K at t=0"
   0.0000000E+00   0.0000000E+00   0.1467889E-04  -0.4833307E+01   0.1467889E-04  -0.4833307E+01   0.3000000E+00
   0.0000000E+00   0.9761905E+00   0.2223373E-04  -0.4652988E+01   0.2223373E-04  -0.4652988E+01   0.3000000E+00
   0.0000000E+00   0.1952381E+01   0.1781802E-04  -0.4749140E+01   0.1781802E-04  -0.4749140E+01   0.3000000E+00
   0.0000000E+00   0.2928571E+01   0.1729142E-04  -0.4762169E+01   0.1729142E-04  -0.4762169E+01   0.3000000E+00
   0.0000000E+00   0.3904762E+01   0.1944929E-04  -0.4711096E+01   0.1944929E-04  -0.4711096E+01   0.3000000E+00
   0.0000000E+00   0.4880952E+01   0.1224265E-03  -0.3912125E+01   0.1224265E-03  -0.3912125E+01   0.3000000E+00
   0.0000000E+00   0.5857143E+01   0.5497676E-04  -0.4259821E+01   0.5497676E-04  -0.4259821E+01   0.3000000E+00
   0.0000000E+00   0.6833333E+01   0.5760507E-04  -0.4239539E+01   0.5760507E-04  -0.4239539E+01   0.3000000E+00
   0.0000000E+00   0.7809524E+01   0.1149630E-03  -0.3939442E+01   0.1149630E-03  -0.3939442E+01   0.3000000E+00
   0.0000000E+00   0.8785714E+01   0.2065641E-03  -0.3684945E+01   0.2065641E-03  -0.3684945E+01   0.3000000E+00
   0.0000000E+00   0.9761905E+01   0.1034109E-03  -0.3985434E+01   0.1034109E-03  -0.3985434E+01   0.3000000E+00
   0.0000000E+00   0.1073810E+02   0.2263236E-06  -0.6645270E+01   0.2263236E-06  -0.6645270E+01   0.3000000E+00
   0.0000000E+00   0.1171429E+02   0.9393150E-07  -0.7027189E+01   0.9393150E-07  -0.7027189E+01   0.3000000E+00
   0.0000000E+00   0.1269048E+02   0.3511983E-07  -0.7454448E+01   0.3511983E-07  -0.7454448E+01   0.3000000E+00
   0.0000000E+00   0.1366667E+02   0.9873613E-08  -0.8005524E+01   0.9873613E-08  -0.8005524E+01   0.3000000E+00
   0.0000000E+00   0.1464286E+02   0.7408040E-08  -0.8130297E+01   0.7408040E-08  -0.8130297E+01   0.3000000E+00
   0.0000000E+00   0.1561905E+02   0.1586675E-03  -0.3799512E+01   0.1586675E-03  -0.3799512E+01   0.3000000E+00
   0.0000000E+00   0.1659524E+02   0.7561923E-04  -0.4121368E+01   0.7561923E-04  -0.4121368E+01   0.3000000E+00
   0.0000000E+00   0.1757143E+02   0.7580851E-04  -0.4120282E+01   0.7580851E-04  -0.4120282E+01   0.3000000E+00
   0.0000000E+00   0.1854762E+02   0.9912786E-04  -0.4003804E+01   0.9912786E-04  -0.4003804E+01   0.3000000E+00
   0.0000000E+00   0.1952381E+02   0.1027512E-03  -0.3988213E+01   0.1027512E-03  -0.3988213E+01   0.3000000E+00
   0.0000000E+00   0.2050000E+02   0.1027512E-03  -0.3988213E+01   0.1027512E-03  -0.3988213E+01   0.3000000E+00
   0.2487805E+01   0.0000000E+00   0.5030456E-05  -0.5298393E+01   0.5030456E-05  -0.5298393E+01   0.3000000E+00
   0.2487805E+01   0.9761905E+00   0.6589718E-05  -0.5181133E+01   0.6589718E-05  -0.5181133E+01   0.3000000E+00
   0.2487805E+01   0.1952381E+01   0.1152721E-04  -0.4938276E+01   0.1152721E-04  -0.4938276E+01   0.3000000E+00
   0.2487805E+01   0.2928571E+01   0.1111072E-04  -0.4954258E+01   0.1111072E-04  -0.4954258E+01   0.3000000E+00
   0.2487805E+01   0.3904762E+01   0.1618218E-04  -0.4790963E+01   0.1618218E-04  -0.4790963E+01   0.3000000E+00
   0.2487805E+01   0.4880952E+01   0.2292919E-04  -0.4639611E+01   0.2292919E-04  -0.4639611E+01   0.3000000E+00
   0.2487805E+01   0.5857143E+01   0.9303824E-04  -0.4031339E+01   0.9303824E-04  -0.4031339E+01   0.3000000E+00
   0.2487805E+01   0.6833333E+01   0.1440716E-03  -0.3841422E+01   0.1440716E-03  -0.3841422E+01   0.3000000E+00
   0.2487805E+01   0.7809524E+01   0.2177419E-03  -0.3662058E+01   0.2177419E-03  -0.3662058E+01   0.3000000E+00
   0.2487805E+01   0.8785714E+01   0.3013012E-03  -0.3520999E+01   0.3013012E-03  -0.3520999E+01   0.3000000E+00
   0.2487805E+01   0.9761905E+01   0.1973563E-03  -0.3704749E+01   0.1973563E-03  -0.3704749E+01   0.3000000E+00
   0.2487805E+01   0.1073810E+02   0.5007219E-07  -0.7300403E+01   0.5007219E-07  -0.7300403E+01   0.3000000E+00
   0.2487805E+01   0.1171429E+02   0.8979828E-07  -0.7046732E+01   0.8979828E-07  -0.7046732E+01   0.3000000E+00
   0.2487805E+01   0.1269048E+02   0.4569395E-07  -0.7340141E+01   0.4569395E-07  -0.7340141E+01   0.3000000E+00
   0.2487805E+01   0.1366667E+02   0.2772587E-07  -0.7557115E+01   0.2772587E-07  -0.7557115E+01   0.3000000E+00
   0.2487805E+01   0.1464286E+02   0.1308446E-03  -0.3883244E+01   0.1308446E-03  -0.3883244E+01   0.3000000E+00
   0.2487805E+01   0.1561905E+02   0.1497715E-03  -0.3824571E+01   0.1497715E-03  -0.3824571E+01   0.3000000E+00
   0.2487805E+01   0.1659524E+02   0.8128899E-04  -0.4089968E+01   0.8128899E-04  -0.4089968E+01   0.3000000E+00
   0.2487805E+01   0.1757143E+02   0.7868957E-04  -0.4104083E+01   0.7868957E-04  -0.4104083E+01   0.3000000E+00
   0.2487805E+01   0.1854762E+02   0.7477702E-04  -0.4126232E+01   0.7477702E-04  -0.4126232E+01   0.3000000E+00
   0.2487805E+01   0.1952381E+02   0.4130612E-04  -0.4383986E+01   0.4130612E-04  -0.4383986E+01   0.3000000E+00
   0.2487805E+01   0.2050000E+02   0.4130612E-04  -0.4383986E+01   0.4130612E-04  -0.4383986E+01   0.3000000E+00
   0.4975610E+01   0.0000000E+00   0.4365840E-05  -0.5359932E+01   0.4365840E-05  -0.5359932E+01   0.3000000E+00
   0.4975610E+01   0.9761905E+00   0.6883385E-05  -0.5162198E+01   0.6883385E-05  -0.5162198E+01   0.3000000E+00
   0.4975610E+01   0.1952381E+01   0.9435796E-05  -0.5025221E+01   0.9435796E-05  -0.5025221E+01   0.3000000E+00
   0.4975610E+01   0.2928571E+01   0.9875042E-05  -0.5005461E+01   0.9875042E-05  -0.5005461E+01   0.3000000E+00
   0.4975610E+01   0.3904762E+01   0.9815969E-05  -0.5008067E+01   0.9815969E-05  -0.5008067E+01   0.3000000E+00
   0.4975610E+01   0.4880952E+01   0.1868854E-04  -0.4728425E+01   0.1868854E-04  -0.4728425E+01   0.3000000E+00
   0.4975610E+01   0.5857143E+01   0.6361890E-04  -0.4196414E+01   0.6361890E-04  -0.4196414E+01   0.3000000E+00
   0.4975610E+01   0.6833333E+01   0.2084941E-03  -0.3680906E+01   0.2084941E-03  -0.3680906E+01   0.3000000E+00
   0.4975610E+01   0.7809524E+01   0.3644213E-03  -0.3438396E+01   0.3644213E-03  -0.3438396E+01   0.3000000E+00
   0.4975610E+01   0.8785714E+01   0.2764170E-03  -0.3558435E+01   0.2764170E-03  -0.3558435E+01   0.3000000E+00
   0.4975610E+01   0.9761905E+01   0.8072195E-04  -0.4093008E+01   0.8072195E-04  -0.4093008E+01   0.3000000E+00
   0.4975610E+01   0.1073810E+02   0.6732630E-08  -0.8171815E+01   0.6732630E-08  -0.8171815E+01   0.3000000E+00
   0.4975610E+01   0.1171429E+02   0.9892391E-08  -0.8004699E+01   0.9892391E-08  -0.8004699E+01   0.3000000E+00
   0.4975610E+01   0.1269048E+02   0.1127137E-07  -0.7948023E+01   0.1127137E-07  -0.7948023E+01   0.3000000E+00
   0.4975610E+01   0.1366667E+02   0.3141438E-07  -0.7502871E+01   0.3141438E-07  -0.7502871E+01   0.3000000E+00
   0.4975610E+01   0.1464286E+02   0.1067202E-03  -0.3971753E+01   0.1067202E-03  -0.3971753E+01   0.3000000E+00
   0.4975610E+01   0.1561905E+02   0.8695672E-04  -0.4060697E+01   0.8695672E-04  -0.4060697E+01   0.3000000E+00
   0.4975610E+01   0.1659524E+02   0.7178751E-04  -0.4143951E+01   0.7178751E-04  -0.4143951E+01   0.3000000E+00
   0.4975610E+01   0.1757143E+02   0.5378586E-04  -0.4269332E+01   0.5378586E-04  -0.4269332E+01   0.3000000E+00
   0.4975610E+01   0.1854762E+02   0.6585864E-04  -0.4181387E+01   0.6585864E-04  -0.4181387E+01   0.3000000E+00
   0.4975610E+01   0.1952381E+02   0.4672179E-04  -0.4330481E+01   0.4672179E-04  -0.4330481E+01   0.3000000E+00
   0.4975610E+01   0.2050000E+02   0.4672179E-04  -0.4330481E+01   0.4672179E-04  -0.4330481E+01   0.3000000E+00
   0.7463415E+01   0.0000000E+00   0.5803206E-05  -0.5236332E+01   0.5803206E-05  -0.5236332E+01   0.3000000E+00
   0.7463415E+01   0.9761905E+00   0.1046787E-04  -0.4980142E+01   0.1046787E-04  -0.4980142E+01   0.3000000E+00
   0.7463415E+01   0.1952381E+01   0.1207468E-04  -0.4918124E+01   0.1207468E-04  -0.4918124E+01   0.3000000E+00
   0.7463415E+01   0.2928571E+01   0.2271920E-04  -0.4643607E+01   0.2271920E-04  -0.4643607E+01   0.3000000E+00
   0.7463415E+01   0.3904762E+01   0.1444157E-04  -0.4840386E+01   0.1444157E-04  -0.4840386E+01   0.3000000E+00
   0.7463415E+01   0.4880952E+01   0.9362483E-05  -0.5028609E+01   0.9362483E-05  -0.5028609E+01   0.3000000E+00
   0.7463415E+01   0.5857143E+01   0.1511081E-04  -0.4820712E+01   0.1511081E-04  -0.4820712E+01   0.3000000E+00
   0.7463415E+01   0.6833333E+01   0.9013518E-04  -0.4045106E+01   0.9013518E-04  -0.4045106E+01   0.3000000E+00
   0.7463415E+01   0.7809524E+01   0.2261075E-03  -0.3645685E+01   0.2261075E-03  -0.3645685E+01   0.3000000E+00
   0.7463415E+01   0.8785714E+01   0.1212568E-03  -0.3916294E+01   0.1212568E-03  -0.3916294E+01   0.3000000E+00
   0.7463415E+01   0.9761905E+01   0.2403294E-03  -0.3619193E+01   0.2403294E-03  -0.3619193E+01   0.3000000E+00
   0.7463415E+01   0.1073810E+02   0.4540176E-08  -0.8342927E+01   0.4540176E-08  -0.8342927E+01   0.3000000E+00
   0.7463415E+01   0.1171429E+02   0.7195572E-08  -0.8142935E+01   0.7195572E-08  -0.8142935E+01   0.3000000E+00
   0.7463415E+01   0.1269048E+02   0.4069686E-08  -0.8390439E+01   0.4069686E-08  -0.8390439E+01   0.3000000E+00
   0.7463415E+01   0.1366667E+02   0.6572970E-08  -0.8182238E+01   0.6572970E-08  -0.8182238E+01   0.3000000E+00
   0.7463415E+01   0.1464286E+02   0.4339788E-04  -0.4362532E+01   0.4339788E-04  -0.4362532E+01   0.3000000E+00
   0.7463415E+01   0.1561905E+02   0.2825048E-04  -0.4548974E+01   0.2825048E-04  -0.4548974E+01   0.3000000E+00
   0.7463415E+01   0.1659524E+02   0.4427457E-04  -0.4353846E+01   0.4427457E-04  -0.4353846E+01   0.3000000E+00
   0.7463415E+01   0.1757143E+02   0.2776040E-04  -0.4556574E+01   0.2776040E-04  -0.4556574E+01   0.3000000E+00
   0.7463415E+01   0.1854762E+02   0.4533641E-04  -0.4343553E+01   0.4533641E-04  -0.4343553E+01   0.3000000E+00
   0.7463415E+01   0.1952381E+02   0.2951240E-04  -0.4529995E+01   0.2951240E-04  -0.4529995E+01   0.3000000E+00
   0.7463415E+01   0.2050000E+02   0.2951240E-04  -0.4529995E+01   0.2951240E-04  -0.4529995E+01   0.3000000E+00
   0.9951220E+01   0.0000000E+00   0.7919361E-05  -0.5101310E+01   0.7919361E-05  -0.5101310E+01   0.3000000E+00
   0.9951220E+01   0.9761905E+00   0.9363420E-05  -0.5028566E+01   0.9363420E-05  -0.5028566E+01   0.3000000E+00
   0.9951220E+01   0.1952381E+01   0.1292173E-04  -0.4888679E+01   0.1292173E-04  -0.4888679E+01   0.3000000E+00
   0.9951220E+01   0.2928571E+01   0.1786620E-04  -0.4747968E+01   0.1786620E-04  -0.4747968E+01   0.3000000E+00
   0.9951220E+01   0.3904762E+01   0.1752994E-04  -0.4756219E+01   0.1752994E-04  -0.4756219E+01   0.3000000E+00
   0.9951220E+01   0.4880952E+01   0.2151414E-04  -0.4667276E+01   0.2151414E-04  -0.4667276E+01   0.3000000E+00
   0.9951220E+01   0.5857143E+01   0.3754389E-04  -0.4425461E+01   0.3754389E-04  -0.4425461E+01   0.3000000E+00
   0.9951220E+01   0.6833333E+01   0.3735290E-04  -0.4427676E+01   0.3735290E-04  -0.4427676E+01   0.3000000E+00
   0.9951220E+01   0.7809524E+01   0.7737862E-04  -0.4111379E+01   0.7737862E-04  -0.4111379E+01   0.3000000E+00
   0.9951220E+01   0.8785714E+01   0.1732630E-03  -0.3761294E+01   0.1732630E-03  -0.3761294E+01   0.3000000E+00
   0.9951220E+01   0.9761905E+01   0.1536397E-03  -0.3813496E+01   0.1536397E-03  -0.3813496E+01   0.3000000E+00
   0.9951220E+01   0.1073810E+02   0.9836018E-09  -0.9007181E+01   0.9836018E-09  -0.9007181E+01   0.3000000E+00
   0.9951220E+01   0.1171429E+02   0.2522287E-08  -0.8598206E+01   0.2522287E-08  -0.8598206E+01   0.3000000E+00
   0.9951220E+01   0.1269048E+02   0.4386650E-08  -0.8357867E+01   0.4386650E-08  -0.8357867E+01   0.3000000E+00
   0.9951220E+01   0.1366667E+02   0.7073574E-08  -0.8150361E+01   0.7073574E-08  -0.8150361E+01   0.3000000E+00
   0.9951220E+01   0.1464286E+02   0.6755287E-04  -0.4170356E+01   0.6755287E-04  -0.4170356E+01   0.3000000E+00
   0.9951220E+01   0.1561905E+02   0.3228848E-04  -0.4490952E+01   0.3228848E-04  -0.4490952E+01   0.3000000E+00
   0.9951220E+01   0.1659524E+02   0.4183405E-04  -0.4378470E+01   0.4183405E-04  -0.4378470E+01   0.3000000E+00
   0.9951220E+01   0.1757143E+02   0.4742790E-04  -0.4323966E+01   0.4742790E-04  -0.4323966E+01   0.3000000E+00
   0.9951220E+01   0.1854762E+02   0.5906335E-04  -0.4228682E+01   0.5906335E-04  -0.4228682E+01   0.3000000E+00
   0.9951220E+01   0.1952381E+02   0.5918751E-04  -0.4227770E+01   0.5918751E-04  -0.4227770E+01   0.3000000E+00
   0.9951220E+01   0.2050000E+02   0.5918751E-04  -0.4227770E+01   0.5918751E-04  -0.4227770E+01   0.3000000E+00
   0.1243902E+02   0.0000000E+00   0.6665937E-05  -0.5176139E+01   0.6665937E-05  -0.5176139E+01   0.3000000E+00
   0.1243902E+02   0.9761905E+00   0.1377025E-04  -0.4861058E+01   0.1377025E-04  -0.4861058E+01   0.3000000E+00
   0.1243902E+02   0.1952381E+01   0.3567002E-04  -0.4447697E+01   0.3567002E-04  -0.4447697E+01   0.3000000E+00
   0.1243902E+02   0.2928571E+01   0.3025346E-04  -0.4519225E+01   0.3025346E-04  -0.4519225E+01   0.3000000E+00
   0.1243902E+02   0.3904762E+01   0.2656808E-04  -0.4575640E+01   0.2656808E-04  -0.4575640E+01   0.3000000E+00
   0.1243902E+02   0.4880952E+01   0.7479197E-04  -0.4126145E+01   0.7479197E-04  -0.4126145E+01   0.3000000E+00
   0.1243902E+02   0.5857143E+01   0.1018204E-03  -0.3992165E+01   0.1018204E-03  -0.3992165E+01   0.3000000E+00
   0.1243902E+02   0.6833333E+01   0.8932760E-04  -0.4049014E+01   0.8932760E-04  -0.4049014E+01   0.3000000E+00
   0.1243902E+02   0.7809524E+01   0.1417706E-03  -0.3848414E+01   0.1417706E-03  -0.3848414E+01   0.3000000E+00
   0.1243902E+02   0.8785714E+01   0.1276013E-03  -0.3894145E+01   0.1276013E-03  -0.3894145E+01   0.3000000E+00
   0.1243902E+02   0.9761905E+01   0.1462051E-03  -0.3835037E+01   0.1462051E-03  -0.3835037E+01   0.3000000E+00
   0.1243902E+02   0.1073810E+02   0.3292562E-08  -0.8482466E+01   0.3292562E-08  -0.8482466E+01   0.3000000E+00
   0.1243902E+02   0.1171429E+02   0.4322638E-08  -0.8364251E+01   0.4322638E-08  -0.8364251E+01   0.3000000E+00
   0.1243902E+02   0.1269048E+02   0.3983122E-08  -0.8399776E+01   0.3983122E-08  -0.8399776E+01   0.3000000E+00
   0.1243902E+02   0.1366667E+02   0.5582746E-07  -0.7253152E+01   0.5582746E-07  -0.7253152E+01   0.3000000E+00
   0.1243902E+02   0.1464286E+02   0.3598170E-04  -0.4443918E+01   0.3598170E-04  -0.4443918E+01   0.3000000E+00
   0.1243902E+02   0.1561905E+02   0.2642500E-04  -0.4577985E+01   0.2642500E-04  -0.4577985E+01   0.3000000E+00
   0.1243902E+02   0.1659524E+02   0.2920998E-04  -0.4534469E+01   0.2920998E-04  -0.4534469E+01   0.3000000E+00
   0.1243902E+02   0.1757143E+02   0.4713004E-04  -0.4326702E+01   0.4713004E-04  -0.4326702E+01   0.3000000E+00
   0.1243902E+02   0.1854762E+02   0.5178034E-04  -0.4285835E+01   0.5178034E-04  -0.4285835E+01   0.3000000E+00
   0.1243902E+02   0.1952381E+02   0.3663157E-04  -0.4436144E+01   0.3663157E-04  -0.4436144E+01   0.3000000E+00
   0.1243902E+02   0.2050000E+02   0.3663157E-04  -0.4436144E+01   0.3663157E-04  -0.4436144E+01   0.3000000E+00
   0.1492683E+02   0.0000000E+00   0.8980096E-05  -0.5046719E+01   0.8980096E-05  -0.5046719E+01   0.3000000E+00
   0.1492683E+02   0.9761905E+00   0.1414570E-04  -0.4849376E+01   0.1414570E-04  -0.4849376E+01   0.3000000E+00
   0.1492683E+02   0.1952381E+01   0.3044770E-04  -0.4516445E+01   0.3044770E-04  -0.4516445E+01   0.3000000E+00
   0.1492683E+02   0.2928571E+01   0.4481355E-04  -0.4348591E+01   0.4481355E-04  -0.4348591E+01   0.3000000E+00
   0.1492683E+02   0.3904762E+01   0.6004598E-04  -0.4221516E+01   0.6004598E-04  -0.4221516E+01   0.3000000E+00
   0.1492683E+02   0.4880952E+01   0.1279079E-03  -0.3893103E+01   0.1279079E-03  -0.3893103E+01   0.3000000E+00
   0.1492683E+02   0.5857143E+01   0.1285491E-03  -0.3890931E+01   0.1285491E-03  -0.3890931E+01   0.3000000E+00
   0.1492683E+02   0.6833333E+01   0.1757409E-03  -0.3755127E+01   0.1757409E-03  -0.3755127E+01   0.3000000E+00
   0.1492683E+02   0.7809524E+01   0.1189747E-03  -0.3924546E+01   0.1189747E-03  -0.3924546E+01   0.3000000E+00
   0.1492683E+02   0.8785714E+01   0.3716289E-04  -0.4429891E+01   0.3716289E-04  -0.4429891E+01   0.3000000E+00
   0.1492683E+02   0.9761905E+01   0.7547569E-04  -0.4122193E+01   0.7547569E-04  -0.4122193E+01   0.3000000E+00
   0.1492683E+02   0.1073810E+02   0.2905966E-08  -0.8536709E+01   0.2905966E-08  -0.8536709E+01   0.3000000E+00
   0.1492683E+02   0.1171429E+02   0.3105783E-08  -0.8507829E+01   0.3105783E-08  -0.8507829E+01   0.3000000E+00
   0.1492683E+02   0.1269048E+02   0.2802371E-08  -0.8552474E+01   0.2802371E-08  -0.8552474E+01   0.3000000E+00
   0.1492683E+02   0.1366667E+02   0.6791459E-08  -0.8168037E+01   0.6791459E-08  -0.8168037E+01   0.3000000E+00
   0.1492683E+02   0.1464286E+02   0.2125964E-04  -0.4672444E+01   0.2125964E-04  -0.4672444E+01   0.3000000E+00
   0.1492683E+02   0.1561905E+02   0.1760021E-04  -0.4754482E+01   0.1760021E-04  -0.4754482E+01   0.3000000E+00
   0.1492683E+02   0.1659524E+02   0.2420866E-04  -0.4616029E+01   0.2420866E-04  -0.4616029E+01   0.3000000E+00
   0.1492683E+02   0.1757143E+02   0.4053276E-04  -0.4392194E+01   0.4053276E-04  -0.4392194E+01   0.3000000E+00
   0.1492683E+02   0.1854762E+02   0.4538631E-04  -0.4343075E+01   0.4538631E-04  -0.4343075E+01   0.3000000E+00
   0.1492683E+02   0.1952381E+02   0.6044359E-04  -0.4218650E+01   0.6044359E-04  -0.4218650E+01   0.3000000E+00
   0.1492683E+02   0.2050000E+02   0.6044359E-04  -0.4218650E+01   0.6044359E-04  -0.4218650E+01   0.3000000E+00
   0.1741463E+02   0.0000000E+00   0.9821860E-05  -0.5007806E+01   0.9821860E-05  -0.5007806E+01   0.3000000E+00
   0.1741463E+02   0.9761905E+00   0.2851159E-04  -0.4544979E+01   0.2851159E-04  -0.4544979E+01   0.3000000E+00
   0.1741463E+02   0.1952381E+01   0.4600778E-04  -0.4337169E+01   0.4600778E-04  -0.4337169E+01   0.3000000E+00
   0.1741463E+02   0.2928571E+01   0.4613678E-04  -0.4335953E+01   0.4613678E-04  -0.4335953E+01   0.3000000E+00
   0.1741463E+02   0.3904762E+01   0.5214407E-04  -0.4282795E+01   0.5214407E-04  -0.4282795E+01   0.3000000E+00
   0.1741463E+02   0.4880952E+01   0.7876042E-04  -0.4103692E+01   0.7876042E-04  -0.4103692E+01   0.3000000E+00
   0.1741463E+02   0.5857143E+01   0.7975908E-04  -0.4098220E+01   0.7975908E-04  -0.4098220E+01   0.3000000E+00
   0.1741463E+02   0.6833333E+01   0.5182696E-04  -0.4285444E+01   0.5182696E-04  -0.4285444E+01   0.3000000E+00
   0.1741463E+02   0.7809524E+01   0.2339039E-03  -0.3630962E+01   0.2339039E-03  -0.3630962E+01   0.3000000E+00
   0.1741463E+02   0.8785714E+01   0.9421794E-04  -0.4025866E+01   0.9421794E-04  -0.4025866E+01   0.3000000E+00
   0.1741463E+02   0.9761905E+01   0.3957551E-04  -0.4402573E+01   0.3957551E-04  -0.4402573E+01   0.3000000E+00
   0.1741463E+02   0.1073810E+02   0.8941164E-08  -0.8048606E+01   0.8941164E-08  -0.8048606E+01   0.3000000E+00
   0.1741463E+02   0.1171429E+02   0.7111163E-08  -0.8148059E+01   0.7111163E-08  -0.8148059E+01   0.3000000E+00
   0.1741463E+02   0.1269048E+02   0.3289271E-08  -0.8482900E+01   0.3289271E-08  -0.8482900E+01   0.3000000E+00
   0.1741463E+02   0.1366667E+02   0.3888665E-08  -0.8410200E+01   0.3888665E-08  -0.8410200E+01   0.3000000E+00
   0.1741463E+02   0.1464286E+02   0.1859347E-04  -0.4730640E+01   0.1859347E-04  -0.4730640E+01   0.3000000E+00
   0.1741463E+02   0.1561905E+02   0.2134272E-04  -0.4670750E+01   0.2134272E-04  -0.4670750E+01   0.3000000E+00
   0.1741463E+02   0.1659524E+02   0.2200810E-04  -0.4657417E+01   0.2200810E-04  -0.4657417E+01   0.3000000E+00
   0.1741463E+02   0.1757143E+02   0.5068401E-04  -0.4295129E+01   0.5068401E-04  -0.4295129E+01   0.3000000E+00
   0.1741463E+02   0.1854762E+02   0.5267340E-04  -0.4278409E+01   0.5267340E-04  -0.4278409E+01   0.3000000E+00
   0.1741463E+02   0.1952381E+02   0.4917132E-04  -0.4308288E+01   0.4917132E-04  -0.4308288E+01   0.3000000E+00
   0.1741463E+02   0.2050000E+02   0.4917132E-04  -0.4308288E+01   0.4917132E-04  -0.4308288E+01   0.3000000E+00
   0.1990244E+02   0.0000000E+00   0.1785013E-04  -0.4748359E+01   0.1785013E-04  -0.4748359E+01   0.3000000E+00
   0.1990244E+02   0.9761905E+00   0.1148234E-04  -0.4939969E+01   0.1148234E-04  -0.4939969E+01   0.3000000E+00
   0.1990244E+02   0.1952381E+01   0.5287394E-04  -0.4276758E+01   0.5287394E-04  -0.4276758E+01   0.3000000E+00
   0.1990244E+02   0.2928571E+01   0.6366345E-04  -0.4196110E+01   0.6366345E-04  -0.4196110E+01   0.3000000E+00
   0.1990244E+02   0.3904762E+01   0.1918849E-04  -0.4716959E+01   0.1918849E-04  -0.4716959E+01   0.3000000E+00
   0.1990244E+02   0.4880952E+01   0.4094012E-04  -0.4387851E+01   0.4094012E-04  -0.4387851E+01   0.3000000E+00
   0.1990244E+02   0.5857143E+01   0.3749136E-04  -0.4426069E+01   0.3749136E-04  -0.4426069E+01   0.3000000E+00
   0.1990244E+02   0.6833333E+01   0.3958739E-04  -0.4402443E+01   0.3958739E-04  -0.4402443E+01   0.3000000E+00
   0.1990244E+02   0.7809524E+01   0.3734917E-04  -0.4427719E+01   0.3734917E-04  -0.4427719E+01   0.3000000E+00
   0.1990244E+02   0.8785714E+01   0.3146924E-04  -0.4502114E+01   0.3146924E-04  -0.4502114E+01   0.3000000E+00
   0.1990244E+02   0.9761905E+01   0.4383842E-04  -0.4358145E+01   0.4383842E-04  -0.4358145E+01   0.3000000E+00
   0.1990244E+02   0.1073810E+02   0.1969699E-07  -0.7705600E+01   0.1969699E-07  -0.7705600E+01   0.3000000E+00
   0.1990244E+02   0.1171429E+02   0.2219719E-07  -0.7653702E+01   0.2219719E-07  -0.7653702E+01   0.3000000E+00
   0.1990244E+02   0.1269048E+02   0.1536306E-07  -0.7813522E+01   0.1536306E-07  -0.7813522E+01   0.3000000E+00
   0.1990244E+02   0.1366667E+02   0.9386438E-08  -0.8027499E+01   0.9386438E-08  -0.8027499E+01   0.3000000E+00
   0.1990244E+02   0.1464286E+02   0.2024708E-04  -0.4693638E+01   0.2024708E-04  -0.4693638E+01   0.3000000E+00
   0.1990244E+02   0.1561905E+02   0.1767782E-04  -0.4752571E+01   0.1767782E-04  -0.4752571E+01   0.3000000E+00
   0.1990244E+02   0.1659524E+02   0.3644887E-04  -0.4438316E+01   0.3644887E-04  -0.4438316E+01   0.3000000E+00
   0.1990244E+02   0.1757143E+02   0.3776983E-04  -0.4422855E+01   0.3776983E-04  -0.4422855E+01   0.3000000E+00
   0.1990244E+02   0.1854762E+02   0.3895903E-04  -0.4409392E+01   0.3895903E-04  -0.4409392E+01   0.3000000E+00
   0.1990244E+02   0.1952381E+02   0.2256524E-04  -0.4646560E+01   0.2256524E-04  -0.4646560E+01   0.3000000E+00
   0.1990244E+02   0.2050000E+02   0.2256524E-04  -0.4646560E+01   0.2256524E-04  -0.4646560E+01   0.3000000E+00
   0.2239024E+02   0.0000000E+00   0.2645144E-04  -0.4577551E+01   0.2645144E-04  -0.4577551E+01   0.3000000E+00
   0.2239024E+02   0.9761905E+00   0.3636150E-04  -0.4439358E+01   0.3636150E-04  -0.4439358E+01   0.3000000E+00
   0.2239024E+02   0.1952381E+01   0.1643496E-04  -0.4784231E+01   0.1643496E-04  -0.4784231E+01   0.3000000E+00
   0.2239024E+02   0.2928571E+01   0.2721343E-04  -0.4565217E+01   0.2721343E-04  -0.4565217E+01   0.3000000E+00
   0.2239024E+02   0.3904762E+01   0.1800610E-04  -0.4744580E+01   0.1800610E-04  -0.4744580E+01   0.3000000E+00
   0.2239024E+02   0.4880952E+01   0.3676001E-04  -0.4434624E+01   0.3676001E-04  -0.4434624E+01   0.3000000E+00
   0.2239024E+02   0.5857143E+01   0.2916912E-04  -0.4535077E+01   0.2916912E-04  -0.4535077E+01   0.3000000E+00
   0.2239024E+02   0.6833333E+01   0.2561071E-04  -0.4591578E+01   0.2561071E-04  -0.4591578E+01   0.3000000E+00
   0.2239024E+02   0.7809524E+01   0.2691034E-04  -0.4570081E+01   0.2691034E-04  -0.4570081E+01   0.3000000E+00
   0.2239024E+02   0.8785714E+01   0.3660594E-04  -0.4436448E+01   0.3660594E-04  -0.4436448E+01   0.3000000E+00
   0.2239024E+02   0.9761905E+01   0.4324193E-04  -0.4364095E+01   0.4324193E-04  -0.4364095E+01   0.3000000E+00
   0.2239024E+02   0.1073810E+02   0.2945801E-07  -0.7530797E+01   0.2945801E-07  -0.7530797E+01   0.3000000E+00
   0.2239024E+02   0.1171429E+02   0.3185409E-07  -0.7496835E+01   0.3185409E-07  -0.7496835E+01   0.3000000E+00
   0.2239024E+02   0.1269048E+02   0.4394179E-07  -0.7357122E+01   0.4394179E-07  -0.7357122E+01   0.3000000E+00
   0.2239024E+02   0.1366667E+02   0.2335628E-07  -0.7631596E+01   0.2335628E-07  -0.7631596E+01   0.3000000E+00
   0.2239024E+02   0.1464286E+02   0.5148088E-04  -0.4288354E+01   0.5148088E-04  -0.4288354E+01   0.3000000E+00
   0.2239024E+02   0.1561905E+02   0.5535741E-04  -0.4256824E+01   0.5535741E-04  -0.4256824E+01   0.3000000E+00
   0.2239024E+02   0.1659524E+02   0.6053432E-04  -0.4217998E+01   0.6053432E-04  -0.4217998E+01   0.3000000E+00
   0.2239024E+02   0.1757143E+02   0.3475803E-04  -0.4458945E+01   0.3475803E-04  -0.4458945E+01   0.3000000E+00
   0.2239024E+02   0.1854762E+02   0.1836066E-04  -0.4736112E+01   0.1836066E-04  -0.4736112E+01   0.3000000E+00
   0.2239024E+02   0.1952381E+02   0.2068297E-04  -0.4684387E+01   0.2068297E-04  -0.4684387E+01   0.3000000E+00
   0.2239024E+02   0.2050000E+02   0.2068297E-04  -0.4684387E+01   0.2068297E-04  -0.4684387E+01   0.3000000E+00
   0.2487805E+02   0.0000000E+00   0.1868480E-04  -0.4728511E+01   0.1868480E-04  -0.4728511E+01   0.3000000E+00
   0.2487805E+02   0.9761905E+00   0.1290107E-04  -0.4889374E+01   0.1290107E-04  -0.4889374E+01   0.3000000E+00
   0.2487805E+02   0.1952381E+01   0.9956350E-05  -0.5001900E+01   0.9956350E-05  -0.5001900E+01   0.3000000E+00
   0.2487805E+02   0.2928571E+01   0.1082990E-04  -0.4965376E+01   0.1082990E-04  -0.4965376E+01   0.3000000E+00
   0.2487805E+02   0.3904762E+01   0.2794702E-04  -0.4553665E+01   0.2794702E-04  -0.4553665E+01   0.3000000E+00
   0.2487805E+02   0.4880952E+01   0.4908780E-04  -0.4309026E+01   0.4908780E-04  -0.4309026E+01   0.3000000E+00
   0.2487805E+02   0.5857143E+01   0.5239497E-04  -0.4280710E+01   0.5239497E-04  -0.4280710E+01   0.3000000E+00
   0.2487805E+02   0.6833333E+01   0.4485839E-04  -0.4348156E+01   0.4485839E-04  -0.4348156E+01   0.3000000E+00
   0.2487805E+02   0.7809524E+01   0.3032616E-04  -0.4518183E+01   0.3032616E-04  -0.4518183E+01   0.3000000E+00
   0.2487805E+02   0.8785714E+01   0.9646792E-04  -0.4015617E+01   0.9646792E-04  -0.4015617E+01   0.3000000E+00
   0.2487805E+02   0.9761905E+01   0.1012822E-03  -0.3994467E+01   0.1012822E-03  -0.3994467E+01   0.3000000E+00
   0.2487805E+02   0.1073810E+02   0.1023247E-07  -0.7990020E+01   0.1023247E-07  -0.7990020E+01   0.3000000E+00
   0.2487805E+02   0.1171429E+02   0.1304188E-07  -0.7884660E+01   0.1304188E-07  -0.7884660E+01   0.3000000E+00
   0.2487805E+02   0.1269048E+02   0.3234197E-07  -0.7490233E+01   0.3234197E-07  -0.7490233E+01   0.3000000E+00
   0.2487805E+02   0.1366667E+02   0.3654944E-07  -0.7437119E+01   0.3654944E-07  -0.7437119E+01   0.3000000E+00
   0.2487805E+02   0.1464286E+02   0.1818370E-03  -0.3740318E+01   0.1818370E-03  -0.3740318E+01   0.3000000E+00
   0.2487805E+02   0.1561905E+02   0.9179984E-04  -0.4037158E+01   0.9179984E-04  -0.4037158E+01   0.3000000E+00
   0.2487805E+02   0.1659524E+02   0.7409963E-04  -0.4130184E+01   0.7409963E-04  -0.4130184E+01   0.3000000E+00
   0.2487805E+02   0.1757143E+02   0.3761905E-04  -0.4424592E+01   0.3761905E-04  -0.4424592E+01   0.3000000E+00
   0.2487805E+02   0.1854762E+02   0.2543969E-04  -0.4594488E+01   0.2543969E-04  -0.4594488E+01   0.3000000E+00
   0.2487805E+02   0.1952381E+02   0.5027513E-04  -0.4298647E+01   0.5027513E-04  -0.4298647E+01   0.3000000E+00
   0.2487805E+02   0.2050000E+02   0.5027513E-04  -0.4298647E+01   0.5027513E-04  -0.4298647E+01   0.3000000E+00
   0.2736585E+02   0.0000000E+00   0.4639982E-05  -0.5333484E+01   0.4639982E-05  -0.5333484E+01   0.3000000E+00
   0.2736585E+02   0.9761905E+00   0.6522192E-05  -0.5185606E+01   0.6522192E-05  -0.5185606E+01   0.3000000E+00
   0.2736585E+02   0.1952381E+01   0.6887516E-05  -0.5161937E+01   0.6887516E-05  -0.5161937E+01   0.3000000E+00
   0.2736585E+02   0.2928571E+01   0.9798316E-05  -0.5008849E+01   0.9798316E-05  -0.5008849E+01   0.3000000E+00
   0.2736585E+02   0.3904762E+01   0.2278063E-04  -0.4642434E+01   0.2278063E-04  -0.4642434E+01   0.3000000E+00
   0.2736585E+02   0.4880952E+01   0.2935053E-04  -0.4532384E+01   0.2935053E-04  -0.4532384E+01   0.3000000E+00
   0.2736585E+02   0.5857143E+01   0.6810227E-04  -0.4166838E+01   0.6810227E-04  -0.4166838E+01   0.3000000E+00
   0.2736585E+02   0.6833333E+01   0.6722939E-04  -0.4172441E+01   0.6722939E-04  -0.4172441E+01   0.3000000E+00
   0.2736585E+02   0.7809524E+01   0.1067629E-03  -0.3971580E+01   0.1067629E-03  -0.3971580E+01   0.3000000E+00
   0.2736585E+02   0.8785714E+01   0.1046907E-03  -0.3980092E+01   0.1046907E-03  -0.3980092E+01   0.3000000E+00
   0.2736585E+02   0.9761905E+01   0.7579335E-04  -0.4120369E+01   0.7579335E-04  -0.4120369E+01   0.3000000E+00
   0.2736585E+02   0.1073810E+02   0.2819560E-07  -0.7549819E+01   0.2819560E-07  -0.7549819E+01   0.3000000E+00
   0.2736585E+02   0.1171429E+02   0.4028043E-07  -0.7394906E+01   0.4028043E-07  -0.7394906E+01   0.3000000E+00
   0.2736585E+02   0.1269048E+02   0.1424443E-07  -0.7846355E+01   0.1424443E-07  -0.7846355E+01   0.3000000E+00
   0.2736585E+02   0.1366667E+02   0.2909790E-07  -0.7536138E+01   0.2909790E-07  -0.7536138E+01   0.3000000E+00
   0.2736585E+02   0.1464286E+02   0.6188084E-04  -0.4208444E+01   0.6188084E-04  -0.4208444E+01   0.3000000E+00
   0.2736585E+02   0.1561905E+02   0.3290125E-04  -0.4482788E+01   0.3290125E-04  -0.4482788E+01   0.3000000E+00
   0.2736585E+02   0.1659524E+02   0.2997041E-04  -0.4523307E+01   0.2997041E-04  -0.4523307E+01   0.3000000E+00
   0.2736585E+02   0.1757143E+02   0.4531375E-04  -0.4343770E+01   0.4531375E-04  -0.4343770E+01   0.3000000E+00
   0.2736585E+02   0.1854762E+02   0.2684315E-04  -0.4571167E+01   0.2684315E-04  -0.4571167E+01   0.3000000E+00
   0.2736585E+02   0.1952381E+02   0.3867566E-04  -0.4412562E+01   0.3867566E-04  -0.4412562E+01   0.3000000E+00
   0.2736585E+02   0.2050000E+02   0.3867566E-04  -0.4412562E+01   0.3867566E-04  -0.4412562E+01   0.3000000E+00