title="2d vectors xz, t=    0.150E+03"
variables="x","z","vx","vz"
zone i=    21, j=    41, T="   0.150E+03"
  0.124390E+01  0.488084E+00  0.340894E-07  0.897074E-09
  0.124390E+01  0.146425E+01  0.545932E-07  0.618226E-08
  0.124390E+01  0.244042E+01  0.489196E-07  0.821897E-08
  0.124390E+01  0.341659E+01  0.535676E-07  0.755481E-08
  0.124390E+01  0.439276E+01  0.646923E-07  0.281753E-08
  0.124390E+01  0.536892E+01  0.439141E-06  0.636329E-07
  0.124390E+01  0.634509E+01  0.226035E-06  0.449139E-07
  0.124390E+01  0.732126E+01  0.262838E-06  0.191939E-07
  0.124390E+01  0.829743E+01  0.542468E-06  0.736434E-08
  0.124390E+01  0.927359E+01  0.985893E-06  0.152982E-07
  0.124390E+01  0.102498E+02  0.500250E-06  0.938720E-08
  0.124390E+01  0.112259E+02  0.996485E-09 -0.271215E-09
  0.124390E+01  0.122021E+02  0.360628E-09 -0.223750E-10
  0.124390E+01  0.131783E+02  0.131602E-09  0.127901E-12
  0.124390E+01  0.141544E+02  0.380723E-10  0.270031E-11
  0.124390E+01  0.151306E+02  0.278524E-10 -0.384247E-11
  0.124390E+01  0.161068E+02  0.547684E-06 -0.422439E-07
  0.124390E+01  0.170829E+02  0.248255E-06 -0.124019E-07
  0.124390E+01  0.180591E+02  0.238833E-06 -0.131635E-07
  0.124390E+01  0.190353E+02  0.296138E-06 -0.239791E-07
  0.124390E+01  0.200114E+02  0.246858E-06  0.320214E-07
  0.373171E+01  0.488053E+00  0.236643E-07  0.639616E-09
  0.373171E+01  0.146416E+01  0.303088E-07  0.187253E-08
  0.373171E+01  0.244026E+01  0.491814E-07  0.399121E-08
  0.373171E+01  0.341637E+01  0.423626E-07  0.326334E-08
  0.373171E+01  0.439247E+01  0.582448E-07  0.527382E-08
  0.373171E+01  0.536858E+01  0.816587E-07  0.207907E-07
  0.373171E+01  0.634468E+01  0.304720E-06  0.965480E-07
  0.373171E+01  0.732079E+01  0.428161E-06  0.705451E-07
  0.373171E+01  0.829689E+01  0.623393E-06  0.598026E-08
  0.373171E+01  0.927300E+01  0.817371E-06 -0.403790E-07
  0.373171E+01  0.102491E+02  0.492526E-06 -0.177355E-07
  0.373171E+01  0.112252E+02  0.122854E-09 -0.111801E-09
  0.373171E+01  0.122013E+02  0.232313E-09 -0.269716E-10
  0.373171E+01  0.131774E+02  0.135247E-09  0.357043E-10
  0.373171E+01  0.141535E+02  0.913859E-10  0.174655E-10
  0.373171E+01  0.151296E+02  0.463641E-06 -0.640893E-07
  0.373171E+01  0.161057E+02  0.576868E-06 -0.441264E-07
  0.373171E+01  0.170818E+02  0.324794E-06 -0.161933E-07
  0.373171E+01  0.180579E+02  0.326170E-06 -0.749020E-08
  0.373171E+01  0.190341E+02  0.332366E-06  0.209591E-08
  0.373171E+01  0.200102E+02  0.201793E-06 -0.134796E-07
  0.621951E+01  0.487948E+00  0.211599E-07  0.372888E-09
  0.621951E+01  0.146384E+01  0.332468E-07  0.111884E-09
  0.621951E+01  0.243974E+01  0.459042E-07 -0.137191E-08
  0.621951E+01  0.341563E+01  0.475561E-07 -0.490434E-08
  0.621951E+01  0.439153E+01  0.417233E-07 -0.852901E-08
  0.621951E+01  0.536742E+01  0.599451E-07 -0.122242E-07
  0.621951E+01  0.634332E+01  0.162143E-06  0.120576E-07
  0.621951E+01  0.731921E+01  0.513134E-06  0.712374E-07
  0.621951E+01  0.829511E+01  0.922857E-06  0.290274E-07
  0.621951E+01  0.927100E+01  0.786802E-06  0.639957E-07
  0.621951E+01  0.102469E+02  0.269711E-06  0.203711E-07
  0.621951E+01  0.112228E+02  0.299121E-10  0.846961E-12
  0.621951E+01  0.121987E+02  0.549463E-10  0.509236E-11
  0.621951E+01  0.131746E+02  0.659250E-10  0.187962E-10
  0.621951E+01  0.141505E+02  0.192120E-09  0.402554E-10
  0.621951E+01  0.151264E+02  0.678257E-06  0.107609E-07
  0.621951E+01  0.161023E+02  0.577562E-06  0.548465E-07
  0.621951E+01  0.170782E+02  0.521165E-06  0.586870E-07
  0.621951E+01  0.180541E+02  0.423802E-06  0.456528E-07
  0.621951E+01  0.190300E+02  0.539444E-06  0.423124E-07
  0.621951E+01  0.200059E+02  0.380762E-06  0.359294E-08
  0.870732E+01  0.487829E+00  0.223667E-07 -0.999457E-09
  0.870732E+01  0.146349E+01  0.384130E-07 -0.250622E-08
  0.870732E+01  0.243914E+01  0.426149E-07 -0.191623E-08
  0.870732E+01  0.341480E+01  0.823951E-07 -0.818937E-08
  0.870732E+01  0.439046E+01  0.603787E-07 -0.149278E-07
  0.870732E+01  0.536611E+01  0.451822E-07 -0.140907E-07
  0.870732E+01  0.634177E+01  0.700808E-07 -0.169257E-07
  0.870732E+01  0.731743E+01  0.354644E-06 -0.329250E-07
  0.870732E+01  0.829308E+01  0.819110E-06  0.391001E-07
  0.870732E+01  0.926874E+01  0.419857E-06  0.643827E-07
  0.870732E+01  0.102444E+02  0.742911E-06  0.644242E-07
  0.870732E+01  0.112201E+02  0.218310E-10  0.331423E-10
  0.870732E+01  0.121957E+02  0.597224E-10  0.365633E-10
  0.870732E+01  0.131714E+02  0.448487E-10  0.194992E-10
  0.870732E+01  0.141470E+02  0.855321E-10  0.257750E-10
  0.870732E+01  0.151227E+02  0.599289E-06  0.453505E-08
  0.870732E+01  0.160983E+02  0.384712E-06  0.245814E-07
  0.870732E+01  0.170740E+02  0.591496E-06  0.662448E-07
  0.870732E+01  0.180497E+02  0.370813E-06  0.484602E-07
  0.870732E+01  0.190253E+02  0.611364E-06  0.392502E-07
  0.870732E+01  0.200010E+02  0.402975E-06  0.532476E-08
  0.111951E+02  0.487565E+00  0.257363E-07  0.293426E-09
  0.111951E+02  0.146269E+01  0.339745E-07  0.433453E-09
  0.111951E+02  0.243782E+01  0.499899E-07 -0.245060E-08
  0.111951E+02  0.341295E+01  0.680531E-07 -0.416950E-08
  0.111951E+02  0.438808E+01  0.635060E-07 -0.390233E-08
  0.111951E+02  0.536321E+01  0.773955E-07 -0.158329E-07
  0.111951E+02  0.633834E+01  0.148334E-06 -0.551201E-07
  0.111951E+02  0.731347E+01  0.157262E-06 -0.429860E-07
  0.111951E+02  0.828860E+01  0.306365E-06 -0.369622E-07
  0.111951E+02  0.926373E+01  0.616348E-06 -0.437442E-07
  0.111951E+02  0.102389E+02  0.528275E-06 -0.305781E-07
  0.111951E+02  0.112140E+02  0.646901E-11  0.198295E-10
  0.111951E+02  0.121891E+02  0.278855E-10  0.316894E-10
  0.111951E+02  0.131642E+02  0.599021E-10  0.477642E-10
  0.111951E+02  0.141394E+02  0.896631E-10  0.291496E-11
  0.111951E+02  0.151145E+02  0.714389E-06  0.194537E-07
  0.111951E+02  0.160896E+02  0.352833E-06  0.354454E-07
  0.111951E+02  0.170648E+02  0.474047E-06  0.686932E-07
  0.111951E+02  0.180399E+02  0.535405E-06  0.705081E-07
  0.111951E+02  0.190150E+02  0.638045E-06  0.124467E-07
  0.111951E+02  0.199902E+02  0.604943E-06 -0.128306E-07
  0.136829E+02  0.487407E+00  0.196630E-07  0.181991E-09
  0.136829E+02  0.146222E+01  0.353985E-07  0.754701E-09
  0.136829E+02  0.243703E+01  0.849983E-07 -0.229055E-08
  0.136829E+02  0.341185E+01  0.752576E-07 -0.738271E-08
  0.136829E+02  0.438666E+01  0.680861E-07 -0.131783E-07
  0.136829E+02  0.536148E+01  0.190865E-06 -0.415096E-07
  0.136829E+02  0.633629E+01  0.263114E-06 -0.677619E-07
  0.136829E+02  0.731110E+01  0.237804E-06 -0.976910E-07
  0.136829E+02  0.828592E+01  0.384102E-06 -0.149656E-06
  0.136829E+02  0.926073E+01  0.340224E-06 -0.103475E-06
  0.136829E+02  0.102355E+02  0.380699E-06 -0.151598E-07
  0.136829E+02  0.112104E+02  0.717357E-11  0.889006E-10
  0.136829E+02  0.121852E+02  0.158562E-10  0.906636E-10
  0.136829E+02  0.131600E+02  0.269484E-10  0.678454E-10
  0.136829E+02  0.141348E+02  0.596668E-09  0.995846E-10
  0.136829E+02  0.151096E+02  0.483738E-06  0.212503E-07
  0.136829E+02  0.160844E+02  0.355131E-06  0.444681E-07
  0.136829E+02  0.170592E+02  0.387488E-06  0.480992E-07
  0.136829E+02  0.180341E+02  0.619641E-06  0.505532E-07
  0.136829E+02  0.190089E+02  0.711421E-06  0.463547E-07
  0.136829E+02  0.199837E+02  0.541494E-06  0.100966E-07
  0.161707E+02  0.487137E+00  0.326202E-07 -0.376315E-09
  0.161707E+02  0.146141E+01  0.534203E-07 -0.674249E-08
  0.161707E+02  0.243569E+01  0.107474E-06 -0.195545E-07
  0.161707E+02  0.340996E+01  0.136734E-06 -0.278387E-07
  0.161707E+02  0.438424E+01  0.162197E-06 -0.493063E-07
  0.161707E+02  0.535851E+01  0.331577E-06 -0.685577E-07
  0.161707E+02  0.633278E+01  0.341907E-06 -0.553726E-07
  0.161707E+02  0.730706E+01  0.536763E-06 -0.214694E-07
  0.161707E+02  0.828133E+01  0.438248E-06 -0.357523E-07
  0.161707E+02  0.925561E+01  0.146002E-06 -0.390442E-07
  0.161707E+02  0.102299E+02  0.282626E-06 -0.372957E-07
  0.161707E+02  0.112042E+02  0.132533E-10  0.825363E-10
  0.161707E+02  0.121784E+02  0.202505E-10  0.882170E-10
  0.161707E+02  0.131527E+02  0.284032E-10  0.750078E-10
  0.161707E+02  0.141270E+02  0.952885E-10  0.816739E-10
  0.161707E+02  0.151013E+02  0.326447E-06  0.164195E-07
  0.161707E+02  0.160755E+02  0.268917E-06  0.228053E-07
  0.161707E+02  0.170498E+02  0.363591E-06  0.224508E-07
  0.161707E+02  0.180241E+02  0.590429E-06  0.136295E-07
  0.161707E+02  0.189984E+02  0.606728E-06  0.374560E-08
  0.161707E+02  0.199726E+02  0.717831E-06 -0.351297E-08
  0.186585E+02  0.486930E+00  0.438926E-07 -0.475637E-08
  0.186585E+02  0.146079E+01  0.118896E-06 -0.122637E-07
  0.186585E+02  0.243465E+01  0.206158E-06 -0.241631E-07
  0.186585E+02  0.340851E+01  0.219563E-06 -0.577279E-07
  0.186585E+02  0.438237E+01  0.237707E-06 -0.833117E-07
  0.186585E+02  0.535622E+01  0.340161E-06 -0.512518E-07
  0.186585E+02  0.633008E+01  0.338379E-06 -0.270674E-07
  0.186585E+02  0.730394E+01  0.200011E-06 -0.959066E-08
  0.186585E+02  0.827780E+01  0.792827E-06  0.397555E-07
  0.186585E+02  0.925166E+01  0.367659E-06  0.390754E-07
  0.186585E+02  0.102255E+02  0.197528E-06  0.139225E-07
  0.186585E+02  0.111994E+02  0.694866E-10  0.328652E-09
  0.186585E+02  0.121732E+02  0.785585E-10  0.237860E-09
  0.186585E+02  0.131471E+02  0.371408E-10  0.103956E-09
  0.186585E+02  0.141210E+02  0.466402E-10  0.736905E-10
  0.186585E+02  0.150948E+02  0.243791E-06  0.174674E-08
  0.186585E+02  0.160687E+02  0.266116E-06  0.294457E-08
  0.186585E+02  0.170425E+02  0.257527E-06 -0.118645E-07
  0.186585E+02  0.180164E+02  0.557732E-06 -0.574914E-07
  0.186585E+02  0.189903E+02  0.575049E-06 -0.911903E-07
  0.186585E+02  0.199641E+02  0.547907E-06 -0.727880E-07
  0.211463E+02  0.486755E+00  0.118293E-06 -0.103075E-07
  0.211463E+02  0.146027E+01  0.748568E-07 -0.158046E-07
  0.211463E+02  0.243378E+01  0.305391E-06 -0.362255E-07
  0.211463E+02  0.340729E+01  0.371635E-06 -0.142429E-07
  0.211463E+02  0.438080E+01  0.138894E-06  0.849092E-08
  0.211463E+02  0.535431E+01  0.349254E-06 -0.397818E-10
  0.211463E+02  0.632782E+01  0.335524E-06 -0.431592E-08
  0.211463E+02  0.730133E+01  0.371968E-06 -0.978953E-08
  0.211463E+02  0.827484E+01  0.374419E-06  0.238550E-07
  0.211463E+02  0.924835E+01  0.322937E-06  0.586248E-07
  0.211463E+02  0.102219E+02  0.437162E-06  0.414907E-07
  0.211463E+02  0.111954E+02  0.235092E-09  0.951421E-09
  0.211463E+02  0.121689E+02  0.311006E-09  0.790440E-09
  0.211463E+02  0.131424E+02  0.192467E-09  0.404096E-09
  0.211463E+02  0.141159E+02  0.115415E-09  0.239114E-09
  0.211463E+02  0.150894E+02  0.272347E-06 -0.124027E-07
  0.211463E+02  0.160629E+02  0.232720E-06 -0.270749E-07
  0.211463E+02  0.170364E+02  0.458229E-06 -0.855057E-07
  0.211463E+02  0.180099E+02  0.450546E-06 -0.104038E-06
  0.211463E+02  0.189835E+02  0.439932E-06 -0.764095E-07
  0.211463E+02  0.199570E+02  0.249062E-06 -0.299254E-07
  0.236341E+02  0.486545E+00  0.140384E-06 -0.424187E-08
  0.236341E+02  0.145963E+01  0.212908E-06 -0.242992E-07
  0.236341E+02  0.243272E+01  0.123121E-06  0.146008E-07
  0.236341E+02  0.340581E+01  0.249405E-06  0.718182E-07
  0.236341E+02  0.437890E+01  0.180492E-06  0.604822E-07
  0.236341E+02  0.535199E+01  0.379258E-06  0.418082E-07
  0.236341E+02  0.632508E+01  0.311092E-06  0.206081E-07
  0.236341E+02  0.729817E+01  0.278917E-06  0.166487E-07
  0.236341E+02  0.827126E+01  0.296680E-06  0.455342E-07
  0.236341E+02  0.924435E+01  0.402564E-06  0.492921E-07
  0.236341E+02  0.102174E+02  0.467356E-06  0.103169E-07
  0.236341E+02  0.111905E+02  0.291228E-09  0.152277E-08
  0.236341E+02  0.121636E+02  0.311274E-09  0.118710E-08
  0.236341E+02  0.131367E+02  0.407254E-09  0.860758E-09
  0.236341E+02  0.141098E+02  0.156622E-09  0.585390E-09
  0.236341E+02  0.150829E+02  0.279710E-06 -0.253274E-07
  0.236341E+02  0.160560E+02  0.315982E-06 -0.931882E-07
  0.236341E+02  0.170291E+02  0.387791E-06 -0.116593E-06
  0.236341E+02  0.180022E+02  0.260432E-06 -0.709862E-07
  0.236341E+02  0.189752E+02  0.160299E-06 -0.208888E-07
  0.236341E+02  0.199483E+02  0.197933E-06 -0.135757E-07
  0.261220E+02  0.486366E+00  0.133090E-06  0.107019E-07
  0.261220E+02  0.145910E+01  0.102444E-06  0.269901E-07
  0.261220E+02  0.243183E+01  0.842172E-07  0.362161E-07
  0.261220E+02  0.340456E+01  0.891964E-07  0.390087E-07
  0.261220E+02  0.437730E+01  0.205006E-06  0.640470E-07
  0.261220E+02  0.535003E+01  0.334798E-06  0.804116E-07
  0.261220E+02  0.632276E+01  0.363983E-06  0.743950E-07
  0.261220E+02  0.729549E+01  0.324605E-06  0.562470E-07
  0.261220E+02  0.826822E+01  0.213266E-06  0.276178E-07
  0.261220E+02  0.924096E+01  0.596146E-06 -0.118318E-07
  0.261220E+02  0.102137E+02  0.570140E-06 -0.186416E-07
  0.261220E+02  0.111864E+02  0.463898E-10  0.480614E-09
  0.261220E+02  0.121592E+02  0.331195E-10  0.477610E-09
  0.261220E+02  0.131319E+02  0.109908E-09  0.684276E-09
  0.261220E+02  0.141046E+02  0.154689E-09  0.697591E-09
  0.261220E+02  0.150774E+02  0.599224E-06 -0.289702E-07
  0.261220E+02  0.160501E+02  0.342537E-06 -0.182461E-07
  0.261220E+02  0.170228E+02  0.328697E-06  0.130360E-07
  0.261220E+02  0.179955E+02  0.191034E-06  0.104033E-07
  0.261220E+02  0.189683E+02  0.133221E-06  0.291198E-08
  0.261220E+02  0.199410E+02  0.256180E-06 -0.620711E-08
  0.286098E+02  0.486276E+00  0.530362E-07  0.128205E-08
  0.286098E+02  0.145883E+01  0.649623E-07  0.469946E-08
  0.286098E+02  0.243138E+01  0.558426E-07  0.109943E-07
  0.286098E+02  0.340393E+01  0.647784E-07  0.122153E-07
  0.286098E+02  0.437648E+01  0.137903E-06  0.209050E-07
  0.286098E+02  0.534903E+01  0.176631E-06  0.470869E-07
  0.286098E+02  0.632158E+01  0.395923E-06  0.854903E-07
  0.286098E+02  0.729413E+01  0.356006E-06  0.560229E-07
  0.286098E+02  0.826668E+01  0.528998E-06 -0.647914E-08
  0.286098E+02  0.923923E+01  0.567777E-06 -0.140317E-07
  0.286098E+02  0.102118E+02  0.457453E-06 -0.114181E-08
  0.286098E+02  0.111843E+02  0.609078E-10  0.961301E-09
  0.286098E+02  0.121569E+02 -0.216867E-09  0.101161E-08
  0.286098E+02  0.131294E+02 -0.509309E-10  0.562686E-09
  0.286098E+02  0.141020E+02  0.139383E-09  0.706714E-09
  0.286098E+02  0.150745E+02  0.502309E-06  0.469817E-07
  0.286098E+02  0.160471E+02  0.281184E-06  0.360377E-07
  0.286098E+02  0.170196E+02  0.253281E-06  0.132031E-07
  0.286098E+02  0.179922E+02  0.361989E-06  0.213811E-07
  0.286098E+02  0.189647E+02  0.213617E-06  0.662898E-08
  0.286098E+02  0.199373E+02  0.313331E-06 -0.966743E-08
  0.310976E+02  0.486129E+00  0.594622E-07 -0.302307E-08
  0.310976E+02  0.145839E+01  0.447118E-07 -0.471823E-08
  0.310976E+02  0.243064E+01  0.284122E-07 -0.261228E-08
  0.310976E+02  0.340290E+01  0.466947E-07 -0.189232E-08
  0.310976E+02  0.437516E+01  0.548612E-07 -0.343643E-08
  0.310976E+02  0.534742E+01  0.101272E-06  0.972597E-09
  0.310976E+02  0.631967E+01  0.248824E-06  0.138134E-07
  0.310976E+02  0.729193E+01  0.634326E-06  0.231454E-07
  0.310976E+02  0.826419E+01  0.346103E-06  0.897160E-08
  0.310976E+02  0.923644E+01  0.465578E-06  0.454817E-08
  0.310976E+02  0.102087E+02  0.473284E-06  0.287037E-08
  0.310976E+02  0.111810E+02  0.207806E-09  0.932598E-09
  0.310976E+02  0.121532E+02  0.288434E-09  0.793284E-09
  0.310976E+02  0.131255E+02  0.392238E-10  0.243502E-09
  0.310976E+02  0.140977E+02  0.462047E-10  0.259938E-09
  0.310976E+02  0.150700E+02  0.281588E-06  0.215381E-07
  0.310976E+02  0.160422E+02  0.554702E-06  0.349060E-07
  0.310976E+02  0.170145E+02  0.419821E-06 -0.615473E-08
  0.310976E+02  0.179868E+02  0.231420E-06  0.165302E-08
  0.310976E+02  0.189590E+02  0.266659E-06  0.682098E-08
  0.310976E+02  0.199313E+02  0.408877E-06 -0.609057E-08
  0.335854E+02  0.485943E+00  0.590939E-07  0.993796E-09
  0.335854E+02  0.145783E+01  0.545944E-07  0.110164E-08
  0.335854E+02  0.242971E+01  0.198708E-07 -0.226661E-08
  0.335854E+02  0.340160E+01  0.431985E-07 -0.663759E-08
  0.335854E+02  0.437348E+01  0.506305E-07 -0.734802E-08
  0.335854E+02  0.534537E+01  0.602551E-07 -0.944857E-08
  0.335854E+02  0.631726E+01  0.230612E-06 -0.417295E-07
  0.335854E+02  0.728914E+01  0.385069E-06 -0.426778E-07
  0.335854E+02  0.826103E+01  0.565436E-06 -0.342005E-07
  0.335854E+02  0.923291E+01  0.407668E-06 -0.396029E-07
  0.335854E+02  0.102048E+02  0.363096E-06 -0.153664E-07
  0.335854E+02  0.111767E+02  0.360582E-09  0.122667E-08
  0.335854E+02  0.121486E+02  0.393590E-09  0.867385E-09
  0.335854E+02  0.131205E+02  0.377021E-09  0.101001E-08
  0.335854E+02  0.140923E+02  0.157330E-09  0.677128E-09
  0.335854E+02  0.150642E+02  0.285392E-06  0.465867E-08
  0.335854E+02  0.160361E+02  0.820059E-06  0.130475E-07
  0.335854E+02  0.170080E+02  0.407737E-06  0.268791E-07
  0.335854E+02  0.179799E+02  0.342956E-06  0.115289E-07
  0.335854E+02  0.189518E+02  0.312196E-06 -0.101507E-07
  0.335854E+02  0.199237E+02  0.470670E-06 -0.175273E-07
  0.360732E+02  0.485798E+00  0.604581E-07  0.197711E-08
  0.360732E+02  0.145740E+01  0.666173E-07  0.223675E-09
  0.360732E+02  0.242899E+01  0.728652E-07 -0.845587E-08
  0.360732E+02  0.340059E+01  0.537880E-07 -0.932841E-08
  0.360732E+02  0.437219E+01  0.550358E-07 -0.670647E-08
  0.360732E+02  0.534378E+01  0.206612E-06 -0.350247E-07
  0.360732E+02  0.631538E+01  0.317815E-06 -0.361720E-07
  0.360732E+02  0.728698E+01  0.383344E-06 -0.470563E-07
  0.360732E+02  0.825857E+01  0.407194E-06 -0.437986E-07
  0.360732E+02  0.923017E+01  0.369983E-06 -0.120282E-07
  0.360732E+02  0.102018E+02  0.316860E-06 -0.407244E-08
  0.360732E+02  0.111734E+02  0.534373E-09  0.197220E-08
  0.360732E+02  0.121450E+02  0.495437E-09  0.126115E-08
  0.360732E+02  0.131166E+02  0.222097E-09  0.757365E-09
  0.360732E+02  0.140882E+02  0.214490E-09  0.128444E-08
  0.360732E+02  0.150598E+02  0.373123E-06  0.360819E-08
  0.360732E+02  0.160313E+02  0.734736E-06  0.344491E-07
  0.360732E+02  0.170029E+02  0.527491E-06  0.390408E-07
  0.360732E+02  0.179745E+02  0.518377E-06 -0.141935E-07
  0.360732E+02  0.189461E+02  0.333215E-06 -0.494418E-07
  0.360732E+02  0.199177E+02  0.388596E-06 -0.385987E-07
  0.385610E+02  0.485711E+00  0.533193E-07  0.729075E-08
  0.385610E+02  0.145713E+01  0.133957E-06  0.326008E-08
  0.385610E+02  0.242856E+01  0.124304E-06 -0.106374E-07
  0.385610E+02  0.339998E+01  0.631194E-07 -0.130510E-07
  0.385610E+02  0.437140E+01  0.219116E-06 -0.589120E-07
  0.385610E+02  0.534282E+01  0.222140E-06 -0.585177E-07
  0.385610E+02  0.631425E+01  0.191304E-06 -0.149359E-07
  0.385610E+02  0.728567E+01  0.736797E-06 -0.714674E-09
  0.385610E+02  0.825709E+01  0.376887E-06 -0.490323E-08
  0.385610E+02  0.922851E+01  0.486345E-06 -0.682871E-08
  0.385610E+02  0.101999E+02  0.310211E-06 -0.936003E-08
  0.385610E+02  0.111714E+02  0.346718E-09  0.201752E-08
  0.385610E+02  0.121428E+02  0.288087E-09  0.198036E-08
  0.385610E+02  0.131142E+02  0.436401E-09  0.257163E-08
  0.385610E+02  0.140856E+02  0.249612E-09  0.156390E-08
  0.385610E+02  0.150570E+02  0.370042E-06  0.670832E-08
  0.385610E+02  0.160285E+02  0.806323E-06  0.856211E-08
  0.385610E+02  0.169999E+02  0.822053E-06 -0.247056E-07
  0.385610E+02  0.179713E+02  0.730736E-06 -0.750444E-07
  0.385610E+02  0.189427E+02  0.310831E-06 -0.735291E-07
  0.385610E+02  0.199142E+02  0.240901E-06 -0.511071E-07
  0.410488E+02  0.485643E+00  0.295396E-07 -0.458946E-09
  0.410488E+02  0.145693E+01  0.185077E-06 -0.109502E-07
  0.410488E+02  0.242821E+01  0.267821E-06 -0.314677E-07
  0.410488E+02  0.339950E+01  0.264967E-06 -0.103982E-06
  0.410488E+02  0.437078E+01  0.268324E-06 -0.134545E-06
  0.410488E+02  0.534207E+01  0.172244E-06 -0.104010E-06
  0.410488E+02  0.631335E+01  0.285734E-06 -0.951992E-07
  0.410488E+02  0.728464E+01  0.349282E-06  0.141452E-07
  0.410488E+02  0.825593E+01  0.650774E-06  0.907342E-07
  0.410488E+02  0.922721E+01  0.752327E-06  0.225939E-07
  0.410488E+02  0.101985E+02  0.287448E-06  0.244799E-08
  0.410488E+02  0.111698E+02  0.152758E-09  0.231561E-08
  0.410488E+02  0.121411E+02 -0.244554E-09  0.250751E-08
  0.410488E+02  0.131124E+02 -0.101465E-09  0.153606E-08
  0.410488E+02  0.140836E+02  0.363293E-10  0.221393E-08
  0.410488E+02  0.150549E+02  0.440011E-06 -0.115488E-07
  0.410488E+02  0.160262E+02  0.715205E-06  0.956012E-08
  0.410488E+02  0.169975E+02  0.917399E-06 -0.189997E-07
  0.410488E+02  0.179688E+02  0.100615E-05 -0.924060E-07
  0.410488E+02  0.189401E+02  0.402609E-06 -0.718740E-07
  0.410488E+02  0.199113E+02  0.887402E-07 -0.228801E-07
  0.435366E+02  0.485591E+00  0.124379E-06 -0.283906E-07
  0.435366E+02  0.145677E+01  0.159403E-06 -0.565297E-07
  0.435366E+02  0.242795E+01  0.472596E-06 -0.132924E-06
  0.435366E+02  0.339913E+01  0.479435E-06 -0.146432E-06
  0.435366E+02  0.437032E+01  0.250180E-06 -0.103985E-06
  0.435366E+02  0.534150E+01  0.191956E-06 -0.100514E-06
  0.435366E+02  0.631268E+01  0.157801E-06 -0.708903E-07
  0.435366E+02  0.728386E+01  0.285611E-06 -0.693367E-07
  0.435366E+02  0.825504E+01  0.711179E-06 -0.432870E-07
  0.435366E+02  0.922622E+01  0.674135E-06  0.854985E-07
  0.435366E+02  0.101974E+02  0.552675E-06  0.702364E-07
  0.435366E+02  0.111686E+02  0.649239E-09  0.398687E-08
  0.435366E+02  0.121398E+02  0.140110E-09  0.306471E-08
  0.435366E+02  0.131109E+02 -0.463020E-09  0.244718E-08
  0.435366E+02  0.140821E+02 -0.112979E-09  0.158877E-08
  0.435366E+02  0.150533E+02  0.393567E-06  0.239516E-07
  0.435366E+02  0.160245E+02  0.604582E-06  0.347321E-07
  0.435366E+02  0.169957E+02  0.163064E-05  0.179194E-07
  0.435366E+02  0.179669E+02  0.762409E-06  0.127818E-07
  0.435366E+02  0.189380E+02  0.309769E-06  0.199408E-07
  0.435366E+02  0.199092E+02  0.110544E-06 -0.634675E-09
  0.460244E+02  0.485528E+00  0.290094E-06 -0.493104E-07
  0.460244E+02  0.145658E+01  0.312618E-06 -0.120193E-06
  0.460244E+02  0.242764E+01  0.301350E-06 -0.913091E-07
  0.460244E+02  0.339869E+01  0.271783E-06 -0.738736E-07
  0.460244E+02  0.436975E+01  0.253121E-06 -0.498603E-07
  0.460244E+02  0.534080E+01  0.186822E-06 -0.722907E-07
  0.460244E+02  0.631186E+01  0.184278E-06 -0.859764E-07
  0.460244E+02  0.728291E+01  0.257436E-06 -0.797072E-07
  0.460244E+02  0.825397E+01  0.414846E-06 -0.122987E-07
  0.460244E+02  0.922502E+01  0.322933E-06  0.518063E-07
  0.460244E+02  0.101961E+02  0.770211E-06  0.524566E-07
  0.460244E+02  0.111671E+02  0.120919E-08  0.321273E-08
  0.460244E+02  0.121382E+02  0.100341E-08  0.273579E-08
  0.460244E+02  0.131092E+02  0.423712E-09  0.217448E-08
  0.460244E+02  0.140803E+02  0.676527E-10  0.197814E-08
  0.460244E+02  0.150514E+02  0.233434E-06  0.251188E-07
  0.460244E+02  0.160224E+02  0.696387E-06  0.137777E-06
  0.460244E+02  0.169935E+02  0.112767E-05  0.285531E-06
  0.460244E+02  0.179645E+02  0.104901E-05  0.282339E-06
  0.460244E+02  0.189356E+02  0.438252E-06  0.110454E-06
  0.460244E+02  0.199066E+02  0.273373E-06  0.193467E-07
  0.485122E+02  0.485464E+00  0.520864E-06 -0.461224E-08
  0.485122E+02  0.145639E+01  0.270202E-06 -0.119871E-07
  0.485122E+02  0.242732E+01  0.437383E-06 -0.252866E-07
  0.485122E+02  0.339825E+01  0.943984E-07 -0.133186E-07
  0.485122E+02  0.436917E+01  0.272188E-06 -0.199261E-07
  0.485122E+02  0.534010E+01  0.150338E-06 -0.137487E-07
  0.485122E+02  0.631103E+01  0.179100E-06 -0.197645E-07
  0.485122E+02  0.728195E+01  0.193119E-06 -0.148254E-07
  0.485122E+02  0.825288E+01  0.123959E-06 -0.482792E-08
  0.485122E+02  0.922381E+01  0.278124E-06 -0.127982E-07
  0.485122E+02  0.101947E+02  0.730301E-06 -0.202290E-07
  0.485122E+02  0.111657E+02  0.143829E-08  0.258833E-08
  0.485122E+02  0.121366E+02  0.183588E-08  0.286049E-08
  0.485122E+02  0.131075E+02  0.106639E-08  0.225157E-08
  0.485122E+02  0.140784E+02  0.159839E-09  0.139608E-08
  0.485122E+02  0.150494E+02  0.158516E-06  0.738896E-08
  0.485122E+02  0.160203E+02  0.212317E-06  0.401763E-07
  0.485122E+02  0.169912E+02  0.765494E-06  0.114057E-06
  0.485122E+02  0.179622E+02  0.137657E-05  0.124394E-06
  0.485122E+02  0.189331E+02  0.781547E-06  0.774604E-07
  0.485122E+02  0.199040E+02  0.483863E-06  0.263347E-07
  0.510000E+02  0.485355E+00  0.332590E-06  0.149857E-07
  0.510000E+02  0.145606E+01  0.501210E-06  0.314144E-07
  0.510000E+02  0.242677E+01  0.347112E-06  0.178453E-07
  0.510000E+02  0.339748E+01  0.249812E-06  0.106990E-07
  0.510000E+02  0.436819E+01  0.151117E-06  0.274897E-07
  0.510000E+02  0.533890E+01  0.172131E-06  0.417617E-07
  0.510000E+02  0.630961E+01  0.157026E-06  0.196999E-07
  0.510000E+02  0.728032E+01  0.105365E-06  0.269429E-08
  0.510000E+02  0.825103E+01  0.171536E-06 -0.198258E-07
  0.510000E+02  0.922174E+01  0.329077E-06 -0.527080E-07
  0.510000E+02  0.101924E+02  0.502244E-06 -0.185053E-07
  0.510000E+02  0.111632E+02  0.148000E-08  0.215395E-08
  0.510000E+02  0.121339E+02  0.160613E-08  0.243435E-08
  0.510000E+02  0.131046E+02  0.140178E-08  0.197577E-08
  0.510000E+02  0.140753E+02  0.494793E-09  0.152543E-08
  0.510000E+02  0.150460E+02  0.154321E-06 -0.128564E-07
  0.510000E+02  0.160167E+02  0.166250E-06 -0.506153E-07
  0.510000E+02  0.169874E+02  0.716187E-06 -0.462083E-07
  0.510000E+02  0.179581E+02  0.151846E-05  0.356390E-07
  0.510000E+02  0.189288E+02  0.866164E-06 -0.124383E-07
  0.510000E+02  0.198995E+02  0.537863E-06 -0.509900E-07
  0.534878E+02  0.485068E+00  0.430629E-06 -0.443692E-09
  0.534878E+02  0.145520E+01  0.375003E-06  0.887510E-08
  0.534878E+02  0.242534E+01  0.380073E-06  0.345492E-07
  0.534878E+02  0.339548E+01  0.107951E-06  0.312856E-07
  0.534878E+02  0.436561E+01  0.119448E-06  0.462321E-07
  0.534878E+02  0.533575E+01  0.101549E-06  0.287467E-07
  0.534878E+02  0.630588E+01  0.244044E-06  0.268902E-07
  0.534878E+02  0.727602E+01  0.174279E-06 -0.191798E-09
  0.534878E+02  0.824616E+01  0.232224E-06 -0.215980E-07
  0.534878E+02  0.921629E+01  0.242756E-06 -0.338429E-07
  0.534878E+02  0.101864E+02  0.372469E-06 -0.266733E-07
  0.534878E+02  0.111566E+02  0.101712E-08  0.228622E-08
  0.534878E+02  0.121267E+02  0.118538E-08  0.278490E-08
  0.534878E+02  0.130968E+02  0.126978E-08  0.202522E-08
  0.534878E+02  0.140670E+02  0.563815E-09  0.201222E-08
  0.534878E+02  0.150371E+02  0.490020E-06 -0.586956E-07
  0.534878E+02  0.160072E+02  0.297924E-06 -0.122152E-06
  0.534878E+02  0.169774E+02  0.392245E-06 -0.104195E-06
  0.534878E+02  0.179475E+02  0.139998E-05 -0.113804E-06
  0.534878E+02  0.189177E+02  0.120060E-05 -0.799910E-07
  0.534878E+02  0.198878E+02  0.295219E-06 -0.311714E-07
  0.559756E+02  0.484663E+00  0.352857E-06 -0.590358E-08
  0.559756E+02  0.145399E+01  0.366806E-06 -0.531076E-08
  0.559756E+02  0.242332E+01  0.199212E-06  0.269499E-07
  0.559756E+02  0.339264E+01  0.179142E-06  0.391644E-07
  0.559756E+02  0.436197E+01  0.909830E-07  0.135081E-07
  0.559756E+02  0.533130E+01  0.209536E-06  0.858298E-08
  0.559756E+02  0.630062E+01  0.350950E-06  0.155572E-07
  0.559756E+02  0.726995E+01  0.317900E-06 -0.298890E-07
  0.559756E+02  0.823928E+01  0.346747E-06 -0.803071E-07
  0.559756E+02  0.920861E+01  0.319659E-06 -0.696008E-07
  0.559756E+02  0.101779E+02  0.204284E-06 -0.215583E-07
  0.559756E+02  0.111473E+02  0.459170E-09  0.163596E-08
  0.559756E+02  0.121166E+02  0.507737E-09  0.118471E-08
  0.559756E+02  0.130859E+02  0.184879E-08  0.127195E-08
  0.559756E+02  0.140552E+02  0.622718E-09  0.115666E-08
  0.559756E+02  0.150246E+02  0.619214E-06 -0.351311E-07
  0.559756E+02  0.159939E+02  0.387542E-06 -0.908724E-07
  0.559756E+02  0.169632E+02  0.613287E-06 -0.194853E-06
  0.559756E+02  0.179325E+02  0.106620E-05 -0.152089E-06
  0.559756E+02  0.189019E+02  0.830217E-06 -0.403345E-07
  0.559756E+02  0.198712E+02  0.302226E-06 -0.102204E-07
  0.584634E+02  0.484247E+00  0.411366E-06 -0.905126E-09
  0.584634E+02  0.145274E+01  0.236567E-06  0.189513E-07
  0.584634E+02  0.242124E+01  0.141297E-06  0.167214E-07
  0.584634E+02  0.338973E+01  0.223874E-06  0.166282E-07
  0.584634E+02  0.435823E+01  0.202068E-06 -0.103718E-08
  0.584634E+02  0.532672E+01  0.185415E-06 -0.270067E-07
  0.584634E+02  0.629522E+01  0.316061E-06 -0.490179E-07
  0.584634E+02  0.726371E+01  0.627143E-06 -0.142024E-07
  0.584634E+02  0.823221E+01  0.357519E-06 -0.176828E-07
  0.584634E+02  0.920070E+01  0.245534E-06 -0.367942E-07
  0.584634E+02  0.101692E+02  0.166287E-06 -0.141469E-07
  0.584634E+02  0.111377E+02  0.283908E-09  0.132649E-08
  0.584634E+02  0.121062E+02  0.469984E-09  0.136649E-08
  0.584634E+02  0.130747E+02  0.275332E-08  0.219957E-08
  0.584634E+02  0.140432E+02  0.978838E-09  0.184741E-08
  0.584634E+02  0.150117E+02  0.848308E-06  0.252238E-07
  0.584634E+02  0.159802E+02  0.425591E-06 -0.439412E-07
  0.584634E+02  0.169487E+02  0.709988E-06 -0.976148E-07
  0.584634E+02  0.179172E+02  0.682840E-06 -0.561479E-07
  0.584634E+02  0.188857E+02  0.726699E-06 -0.578373E-08
  0.584634E+02  0.198541E+02  0.268951E-06 -0.206300E-08
  0.609512E+02  0.483808E+00  0.259097E-06  0.120170E-07
  0.609512E+02  0.145142E+01  0.190483E-06  0.311375E-07
  0.609512E+02  0.241904E+01  0.303821E-06  0.425108E-07
  0.609512E+02  0.338666E+01  0.171887E-06  0.345028E-07
  0.609512E+02  0.435427E+01  0.352993E-06  0.635718E-07
  0.609512E+02  0.532189E+01  0.443304E-06  0.268884E-07
  0.609512E+02  0.628951E+01  0.315206E-06 -0.354245E-07
  0.609512E+02  0.725712E+01  0.322330E-06 -0.577686E-07
  0.609512E+02  0.822474E+01  0.650571E-06 -0.225077E-07
  0.609512E+02  0.919236E+01  0.257425E-06 -0.414021E-09
  0.609512E+02  0.101600E+02  0.100560E-06 -0.375959E-08
  0.609512E+02  0.111276E+02  0.571782E-10  0.560953E-09
  0.609512E+02  0.120952E+02  0.370668E-09  0.114872E-08
  0.609512E+02  0.130628E+02  0.148110E-08  0.138996E-08
  0.609512E+02  0.140304E+02  0.282475E-08  0.172507E-08
  0.609512E+02  0.149981E+02  0.371237E-06  0.188720E-07
  0.609512E+02  0.159657E+02  0.907976E-06  0.464740E-07
  0.609512E+02  0.169333E+02  0.649831E-06 -0.254993E-08
  0.609512E+02  0.179009E+02  0.636093E-06  0.306497E-07
  0.609512E+02  0.188685E+02  0.568180E-06  0.296299E-07