variables="x","h","c"
zone i=     42,T= "1dxhc;t= 0.1500E+03y,z:   1   1"
    0.00000E+00    0.50000E+00    0.00000E+00
    0.24878E+01    0.49792E+00    0.33757E-23
    0.49756E+01    0.49604E+00    0.17161E-22
    0.74634E+01    0.49389E+00    0.10021E-21
    0.99512E+01    0.48844E+00    0.78506E-21
    0.12439E+02    0.47763E+00    0.67382E-20
    0.14927E+02    0.46676E+00    0.48598E-19
    0.17415E+02    0.46024E+00    0.21593E-18
    0.19902E+02    0.45326E+00    0.12214E-17
    0.22390E+02    0.44862E+00    0.67900E-17
    0.24878E+02    0.44484E+00    0.25410E-16
    0.27366E+02    0.43860E+00    0.66503E-16
    0.29854E+02    0.43374E+00    0.92674E-16
    0.32341E+02    0.42843E+00    0.21813E-15
    0.34829E+02    0.41893E+00    0.11453E-14
    0.37317E+02    0.41316E+00    0.65918E-14
    0.39805E+02    0.40767E+00    0.53925E-13
    0.42293E+02    0.40274E+00    0.32546E-12
    0.44780E+02    0.39342E+00    0.22143E-11
    0.47268E+02    0.38695E+00    0.16567E-10
    0.49756E+02    0.38221E+00    0.11829E-09
    0.52244E+02    0.37789E+00    0.49955E-09
    0.54732E+02    0.36909E+00    0.16594E-08
    0.57220E+02    0.36193E+00    0.88904E-08
    0.59707E+02    0.35617E+00    0.47601E-07
    0.62195E+02    0.35143E+00    0.20591E-06
    0.64683E+02    0.34598E+00    0.56977E-06
    0.67171E+02    0.33922E+00    0.16758E-05
    0.69659E+02    0.33176E+00    0.59950E-05
    0.72146E+02    0.32720E+00    0.15991E-04
    0.74634E+02    0.32271E+00    0.44581E-04
    0.77122E+02    0.32080E+00    0.78397E-04
    0.79610E+02    0.31686E+00    0.89598E-04
    0.82098E+02    0.31049E+00    0.78704E-03
    0.84585E+02    0.30999E+00   -0.58228E-02
    0.87073E+02    0.31553E+00    0.78279E-01
    0.89561E+02    0.32370E+00    0.29380E+00
    0.92049E+02    0.33628E+00    0.51303E+00
    0.94537E+02    0.35287E+00    0.72279E+00
    0.97024E+02    0.37135E+00    0.80486E+00
    0.99512E+02    0.39601E+00    0.92164E+00
    0.10200E+03    0.40009E+00    0.10000E+01
zone i=     42,T= "1dxhc;t= 0.1500E+03y,z:   1  12"
    0.00000E+00    0.50000E+00    0.00000E+00
    0.24878E+01    0.49767E+00    0.20681E-23
    0.49756E+01    0.49374E+00    0.11055E-22
    0.74634E+01    0.48841E+00    0.11877E-21
    0.99512E+01    0.48278E+00    0.15606E-20
    0.12439E+02    0.47561E+00    0.91967E-20
    0.14927E+02    0.47062E+00    0.51844E-19
    0.17415E+02    0.46547E+00    0.18819E-18
    0.19902E+02    0.45762E+00    0.47933E-18
    0.22390E+02    0.45017E+00    0.26118E-17
    0.24878E+02    0.44424E+00    0.12143E-16
    0.27366E+02    0.44017E+00    0.61462E-16
    0.29854E+02    0.43372E+00    0.21542E-15
    0.32341E+02    0.42579E+00    0.11691E-14
    0.34829E+02    0.41945E+00    0.75413E-14
    0.37317E+02    0.40875E+00    0.47755E-13
    0.39805E+02    0.40333E+00    0.39452E-12
    0.42293E+02    0.39826E+00    0.25409E-11
    0.44780E+02    0.39509E+00    0.74747E-11
    0.47268E+02    0.38897E+00    0.26813E-10
    0.49756E+02    0.38521E+00    0.87470E-10
    0.52244E+02    0.38018E+00    0.21078E-09
    0.54732E+02    0.37432E+00    0.35662E-09
    0.57220E+02    0.36810E+00    0.93289E-09
    0.59707E+02    0.36283E+00    0.30349E-08
    0.62195E+02    0.35490E+00    0.10400E-07
    0.64683E+02    0.34540E+00    0.28475E-07
    0.67171E+02    0.33484E+00    0.12063E-06
    0.69659E+02    0.32833E+00    0.64167E-06
    0.72146E+02    0.32603E+00    0.52396E-05
    0.74634E+02    0.32090E+00    0.15875E-04
    0.77122E+02    0.31484E+00    0.25201E-04
    0.79610E+02    0.30806E+00    0.15766E-03
    0.82098E+02    0.30241E+00    0.93995E-03
    0.84585E+02    0.29791E+00    0.28707E-02
    0.87073E+02    0.28960E+00    0.68613E-02
    0.89561E+02    0.27887E+00    0.20375E-01
    0.92049E+02    0.26773E+00    0.26878E-01
    0.94537E+02    0.24461E+00    0.29386E-01
    0.97024E+02    0.21724E+00    0.13070E+00
    0.99512E+02    0.18016E+00    0.48610E+00
    0.10200E+03    0.16004E+00    0.10000E+01
zone i=     42,T= "1dxhc;t= 0.1500E+03y,z:   1  22"
    0.00000E+00    0.49920E+00   -0.39112E-19
    0.24878E+01    0.49655E+00   -0.96870E-19
    0.49756E+01    0.48889E+00   -0.62451E-18
    0.74634E+01    0.48158E+00   -0.21269E-17
    0.99512E+01    0.47277E+00   -0.11311E-16
    0.12439E+02    0.46622E+00   -0.69245E-16
    0.14927E+02    0.46057E+00   -0.42924E-15
    0.17415E+02    0.45196E+00   -0.24108E-14
    0.19902E+02    0.44324E+00   -0.18066E-13
    0.22390E+02    0.43591E+00   -0.82584E-13
    0.24878E+02    0.42630E+00   -0.23609E-12
    0.27366E+02    0.41348E+00   -0.76405E-12
    0.29854E+02    0.40237E+00   -0.19202E-11
    0.32341E+02    0.39062E+00   -0.43208E-11
    0.34829E+02    0.38339E+00   -0.82336E-11
    0.37317E+02    0.37828E+00   -0.13739E-10
    0.39805E+02    0.36788E+00   -0.25101E-10
    0.42293E+02    0.36054E+00   -0.30246E-10
    0.44780E+02    0.35505E+00   -0.73305E-10
    0.47268E+02    0.35116E+00   -0.16092E-09
    0.49756E+02    0.34709E+00   -0.28332E-09
    0.52244E+02    0.34181E+00   -0.89769E-09
    0.54732E+02    0.33472E+00   -0.74265E-09
    0.57220E+02    0.32348E+00   -0.17258E-08
    0.59707E+02    0.31580E+00   -0.64977E-08
    0.62195E+02    0.30294E+00   -0.89019E-08
    0.64683E+02    0.28163E+00   -0.37586E-07
    0.67171E+02    0.26818E+00   -0.72545E-07
    0.69659E+02    0.25547E+00   -0.17100E-06
    0.72146E+02    0.24305E+00   -0.41227E-06
    0.74634E+02    0.23167E+00   -0.47922E-06
    0.77122E+02    0.22155E+00   -0.92908E-06
    0.79610E+02    0.20547E+00   -0.89054E-06
    0.82098E+02    0.19136E+00   -0.14513E-06
    0.84585E+02    0.18077E+00    0.99442E-06
    0.87073E+02    0.17088E+00    0.23524E-05
    0.89561E+02    0.15875E+00    0.10274E-04
    0.92049E+02    0.14424E+00    0.52034E-06
    0.94537E+02    0.10783E+00   -0.18371E-04
    0.97024E+02    0.61213E-01    0.41957E-04
    0.99512E+02    0.15039E-01    0.67580E-04
    0.10200E+03    0.44893E-02    0.17810E-03
zone i=     42,T= "1dxhc;t= 0.3000E+03y,z:   1   1"
    0.00000E+00    0.50000E+00    0.00000E+00
    0.24878E+01    0.49791E+00    0.10187E-19
    0.49756E+01    0.49602E+00    0.44860E-19
    0.74634E+01    0.49385E+00    0.21520E-18
    0.99512E+01    0.48837E+00    0.13434E-17
    0.12439E+02    0.47750E+00    0.91853E-17
    0.14927E+02    0.46657E+00    0.53765E-16
    0.17415E+02    0.46001E+00    0.19631E-15
    0.19902E+02    0.45299E+00    0.91103E-15
    0.22390E+02    0.44833E+00    0.41410E-14
    0.24878E+02    0.44453E+00    0.13581E-13
    0.27366E+02    0.43825E+00    0.34585E-13
    0.29854E+02    0.43336E+00    0.63824E-13
    0.32341E+02    0.42802E+00    0.16187E-12
    0.34829E+02    0.41848E+00    0.74532E-12
    0.37317E+02    0.41268E+00    0.33923E-11
    0.39805E+02    0.40716E+00    0.21323E-10
    0.42293E+02    0.40220E+00    0.96610E-10
    0.44780E+02    0.39284E+00    0.49224E-09
    0.47268E+02    0.38634E+00    0.27100E-08
    0.49756E+02    0.38158E+00    0.14417E-07
    0.52244E+02    0.37725E+00    0.47375E-07
    0.54732E+02    0.36842E+00    0.12472E-06
    0.57220E+02    0.36123E+00    0.50103E-06
    0.59707E+02    0.35546E+00    0.19095E-05
    0.62195E+02    0.35071E+00    0.63864E-05
    0.64683E+02    0.34526E+00    0.15245E-04
    0.67171E+02    0.33852E+00    0.39146E-04
    0.69659E+02    0.33113E+00    0.11766E-03
    0.72146E+02    0.32668E+00    0.28919E-03
    0.74634E+02    0.32239E+00    0.81307E-03
    0.77122E+02    0.32064E+00    0.15434E-02
    0.79610E+02    0.31727E+00    0.36347E-02
    0.82098E+02    0.31584E+00    0.25504E-02
    0.84585E+02    0.32390E+00    0.12587E+00
    0.87073E+02    0.33564E+00    0.31556E+00
    0.89561E+02    0.34496E+00    0.58664E+00
    0.92049E+02    0.35618E+00    0.76272E+00
    0.94537E+02    0.36952E+00    0.86761E+00
    0.97024E+02    0.38345E+00    0.90155E+00
    0.99512E+02    0.40136E+00    0.96144E+00
    0.10200E+03    0.40009E+00    0.10000E+01
zone i=     42,T= "1dxhc;t= 0.3000E+03y,z:   1  12"
    0.00000E+00    0.50000E+00    0.00000E+00
    0.24878E+01    0.49766E+00    0.44749E-20
    0.49756E+01    0.49370E+00    0.21250E-19
    0.74634E+01    0.48834E+00    0.18479E-18
    0.99512E+01    0.48268E+00    0.19324E-17
    0.12439E+02    0.47547E+00    0.91184E-17
    0.14927E+02    0.47045E+00    0.42607E-16
    0.17415E+02    0.46527E+00    0.13095E-15
    0.19902E+02    0.45738E+00    0.26933E-15
    0.22390E+02    0.44989E+00    0.12109E-14
    0.24878E+02    0.44392E+00    0.45288E-14
    0.27366E+02    0.43983E+00    0.18568E-13
    0.29854E+02    0.43335E+00    0.51927E-13
    0.32341E+02    0.42537E+00    0.23030E-12
    0.34829E+02    0.41900E+00    0.11742E-11
    0.37317E+02    0.40824E+00    0.58811E-11
    0.39805E+02    0.40280E+00    0.37747E-10
    0.42293E+02    0.39770E+00    0.19067E-09
    0.44780E+02    0.39453E+00    0.46423E-09
    0.47268E+02    0.38838E+00    0.13707E-08
    0.49756E+02    0.38460E+00    0.36612E-08
    0.52244E+02    0.37954E+00    0.72584E-08
    0.54732E+02    0.37366E+00    0.10248E-07
    0.57220E+02    0.36742E+00    0.23116E-07
    0.59707E+02    0.36212E+00    0.62712E-07
    0.62195E+02    0.35415E+00    0.17209E-06
    0.64683E+02    0.34458E+00    0.38223E-06
    0.67171E+02    0.33392E+00    0.13412E-05
    0.69659E+02    0.32730E+00    0.59869E-05
    0.72146E+02    0.32493E+00    0.38415E-04
    0.74634E+02    0.31957E+00    0.97273E-04
    0.77122E+02    0.31309E+00    0.14577E-03
    0.79610E+02    0.30551E+00    0.66913E-03
    0.82098E+02    0.29887E+00    0.28326E-02
    0.84585E+02    0.29353E+00    0.68431E-02
    0.87073E+02    0.28389E+00    0.13423E-01
    0.89561E+02    0.27215E+00    0.30965E-01
    0.92049E+02    0.26061E+00    0.39105E-01
    0.94537E+02    0.23796E+00    0.41628E-01
    0.97024E+02    0.21223E+00    0.13863E+00
    0.99512E+02    0.17824E+00    0.48811E+00
    0.10200E+03    0.16004E+00    0.10000E+01
zone i=     42,T= "1dxhc;t= 0.3000E+03y,z:   1  22"
    0.00000E+00    0.49920E+00   -0.58999E-16
    0.24878E+01    0.49655E+00   -0.11884E-15
    0.49756E+01    0.48887E+00   -0.63241E-15
    0.74634E+01    0.48155E+00   -0.17620E-14
    0.99512E+01    0.47271E+00   -0.75133E-14
    0.12439E+02    0.46615E+00   -0.33982E-13
    0.14927E+02    0.46049E+00   -0.15633E-12
    0.17415E+02    0.45187E+00   -0.64327E-12
    0.19902E+02    0.44313E+00   -0.33547E-11
    0.22390E+02    0.43578E+00   -0.11166E-10
    0.24878E+02    0.42616E+00   -0.26146E-10
    0.27366E+02    0.41332E+00   -0.70051E-10
    0.29854E+02    0.40219E+00   -0.14699E-09
    0.32341E+02    0.39042E+00   -0.28756E-09
    0.34829E+02    0.38318E+00   -0.50094E-09
    0.37317E+02    0.37806E+00   -0.78033E-09
    0.39805E+02    0.36765E+00   -0.13228E-08
    0.42293E+02    0.36029E+00   -0.16666E-08
    0.44780E+02    0.35479E+00   -0.35795E-08
    0.47268E+02    0.35090E+00   -0.67227E-08
    0.49756E+02    0.34682E+00   -0.10644E-07
    0.52244E+02    0.34153E+00   -0.26453E-07
    0.54732E+02    0.33443E+00   -0.23937E-07
    0.57220E+02    0.32318E+00   -0.47469E-07
    0.59707E+02    0.31548E+00   -0.12469E-06
    0.62195E+02    0.30261E+00   -0.15252E-06
    0.64683E+02    0.28127E+00   -0.46490E-06
    0.67171E+02    0.26781E+00   -0.69233E-06
    0.69659E+02    0.25508E+00   -0.12275E-05
    0.72146E+02    0.24264E+00   -0.23081E-05
    0.74634E+02    0.23126E+00   -0.24889E-05
    0.77122E+02    0.22112E+00   -0.39905E-05
    0.79610E+02    0.20504E+00   -0.41415E-05
    0.82098E+02    0.19094E+00   -0.59516E-06
    0.84585E+02    0.18035E+00    0.20130E-05
    0.87073E+02    0.17046E+00    0.55299E-05
    0.89561E+02    0.15835E+00    0.17975E-04
    0.92049E+02    0.14388E+00   -0.18773E-06
    0.94537E+02    0.10758E+00   -0.13656E-04
    0.97024E+02    0.61109E-01    0.94788E-04
    0.99512E+02    0.15033E-01    0.18928E-04
    0.10200E+03    0.44883E-02    0.10573E-03
zone i=     42,T= "1dxhc;t= 0.4500E+03y,z:   1   1"
    0.00000E+00    0.50000E+00    0.00000E+00
    0.24878E+01    0.49791E+00    0.20050E-17
    0.49756E+01    0.49601E+00    0.79743E-17
    0.74634E+01    0.49385E+00    0.33022E-16
    0.99512E+01    0.48837E+00    0.17258E-15
    0.12439E+02    0.47749E+00    0.98555E-15
    0.14927E+02    0.46656E+00    0.48966E-14
    0.17415E+02    0.45999E+00    0.15420E-13
    0.19902E+02    0.45297E+00    0.61712E-13
    0.22390E+02    0.44831E+00    0.23982E-12
    0.24878E+02    0.44451E+00    0.71373E-12
    0.27366E+02    0.43823E+00    0.17770E-11
    0.29854E+02    0.43334E+00    0.36137E-11
    0.32341E+02    0.42801E+00    0.88322E-11
    0.34829E+02    0.41846E+00    0.35215E-10
    0.37317E+02    0.41267E+00    0.13135E-09
    0.39805E+02    0.40716E+00    0.66663E-09
    0.42293E+02    0.40220E+00    0.24165E-08
    0.44780E+02    0.39285E+00    0.99274E-08
    0.47268E+02    0.38637E+00    0.43646E-07
    0.49756E+02    0.38162E+00    0.18859E-06
    0.52244E+02    0.37730E+00    0.53120E-06
    0.54732E+02    0.36850E+00    0.12365E-05
    0.57220E+02    0.36134E+00    0.42220E-05
    0.59707E+02    0.35560E+00    0.13431E-04
    0.62195E+02    0.35088E+00    0.39480E-04
    0.64683E+02    0.34548E+00    0.89611E-04
    0.67171E+02    0.33884E+00    0.21962E-03
    0.69659E+02    0.33168E+00    0.60357E-03
    0.72146E+02    0.32746E+00    0.13956E-02
    0.74634E+02    0.32359E+00    0.36408E-02
    0.77122E+02    0.32215E+00    0.52414E-02
    0.79610E+02    0.32010E+00    0.62183E-03
    0.82098E+02    0.32612E+00    0.15107E+00
    0.84585E+02    0.33764E+00    0.29628E+00
    0.87073E+02    0.34938E+00    0.47983E+00
    0.89561E+02    0.35749E+00    0.70672E+00
    0.92049E+02    0.36692E+00    0.84066E+00
    0.94537E+02    0.37802E+00    0.91058E+00
    0.97024E+02    0.38931E+00    0.93124E+00
    0.99512E+02    0.40381E+00    0.97466E+00
    0.10200E+03    0.40009E+00    0.10000E+01
zone i=     42,T= "1dxhc;t= 0.4500E+03y,z:   1  12"
    0.00000E+00    0.50000E+00    0.00000E+00
    0.24878E+01    0.49766E+00    0.62316E-18
    0.49756E+01    0.49370E+00    0.26680E-17
    0.74634E+01    0.48833E+00    0.19793E-16
    0.99512E+01    0.48267E+00    0.17278E-15
    0.12439E+02    0.47545E+00    0.69420E-15
    0.14927E+02    0.47044E+00    0.28276E-14
    0.17415E+02    0.46526E+00    0.77488E-14
    0.19902E+02    0.45736E+00    0.13758E-13
    0.22390E+02    0.44987E+00    0.54278E-13
    0.24878E+02    0.44390E+00    0.17572E-12
    0.27366E+02    0.43981E+00    0.62032E-12
    0.29854E+02    0.43333E+00    0.14991E-11
    0.32341E+02    0.42536E+00    0.57921E-11
    0.34829E+02    0.41899E+00    0.24939E-10
    0.37317E+02    0.40824E+00    0.10588E-09
    0.39805E+02    0.40279E+00    0.56051E-09
    0.42293E+02    0.39771E+00    0.23644E-08
    0.44780E+02    0.39453E+00    0.51227E-08
    0.47268E+02    0.38840E+00    0.13366E-07
    0.49756E+02    0.38463E+00    0.31512E-07
    0.52244E+02    0.37958E+00    0.57159E-07
    0.54732E+02    0.37372E+00    0.76410E-07
    0.57220E+02    0.36749E+00    0.15599E-06
    0.59707E+02    0.36221E+00    0.36709E-06
    0.62195E+02    0.35424E+00    0.87806E-06
    0.64683E+02    0.34465E+00    0.17212E-05
    0.67171E+02    0.33392E+00    0.53576E-05
    0.69659E+02    0.32719E+00    0.21594E-04
    0.72146E+02    0.32473E+00    0.11481E-03
    0.74634E+02    0.31906E+00    0.26372E-03
    0.77122E+02    0.31204E+00    0.39441E-03
    0.79610E+02    0.30362E+00    0.14449E-02
    0.82098E+02    0.29617E+00    0.47115E-02
    0.84585E+02    0.29029E+00    0.98266E-02
    0.87073E+02    0.28007E+00    0.17460E-01
    0.89561E+02    0.26810E+00    0.35795E-01
    0.92049E+02    0.25666E+00    0.44289E-01
    0.94537E+02    0.23469E+00    0.45555E-01
    0.97024E+02    0.20999E+00    0.13954E+00
    0.99512E+02    0.17743E+00    0.48753E+00
    0.10200E+03    0.16004E+00    0.10000E+01
zone i=     42,T= "1dxhc;t= 0.4500E+03y,z:   1  22"
    0.00000E+00    0.49920E+00   -0.41501E-14
    0.24878E+01    0.49654E+00   -0.70758E-14
    0.49756E+01    0.48886E+00   -0.32459E-13
    0.74634E+01    0.48153E+00   -0.78934E-13
    0.99512E+01    0.47269E+00   -0.28774E-12
    0.12439E+02    0.46612E+00   -0.10413E-11
    0.14927E+02    0.46046E+00   -0.38548E-11
    0.17415E+02    0.45183E+00   -0.12706E-10
    0.19902E+02    0.44309E+00   -0.50631E-10
    0.22390E+02    0.43573E+00   -0.13391E-09
    0.24878E+02    0.42611E+00   -0.27534E-09
    0.27366E+02    0.41325E+00   -0.65254E-09
    0.29854E+02    0.40212E+00   -0.12288E-08
    0.32341E+02    0.39034E+00   -0.22116E-08
    0.34829E+02    0.38309E+00   -0.36875E-08
    0.37317E+02    0.37797E+00   -0.56307E-08
    0.39805E+02    0.36755E+00   -0.93408E-08
    0.42293E+02    0.36019E+00   -0.12519E-07
    0.44780E+02    0.35469E+00   -0.24676E-07
    0.47268E+02    0.35079E+00   -0.42276E-07
    0.49756E+02    0.34671E+00   -0.64662E-07
    0.52244E+02    0.34141E+00   -0.13830E-06
    0.54732E+02    0.33431E+00   -0.13997E-06
    0.57220E+02    0.32304E+00   -0.25353E-06
    0.59707E+02    0.31534E+00   -0.53869E-06
    0.62195E+02    0.30246E+00   -0.66238E-06
    0.64683E+02    0.28110E+00   -0.16364E-05
    0.67171E+02    0.26763E+00   -0.22056E-05
    0.69659E+02    0.25489E+00   -0.34443E-05
    0.72146E+02    0.24244E+00   -0.58070E-05
    0.74634E+02    0.23105E+00   -0.63737E-05
    0.77122E+02    0.22091E+00   -0.95738E-05
    0.79610E+02    0.20482E+00   -0.10923E-04
    0.82098E+02    0.19071E+00   -0.57283E-05
    0.84585E+02    0.18012E+00   -0.33891E-05
    0.87073E+02    0.17024E+00    0.13352E-05
    0.89561E+02    0.15814E+00    0.12121E-04
    0.92049E+02    0.14368E+00   -0.50861E-05
    0.94537E+02    0.10743E+00   -0.12149E-04
    0.97024E+02    0.61031E-01    0.89566E-04
    0.99512E+02    0.15017E-01    0.21977E-04
    0.10200E+03    0.44837E-02    0.10927E-03
zone i=     42,T= "1dxhc;t= 0.6000E+03y,z:   1   1"
    0.00000E+00    0.50000E+00    0.00000E+00
    0.24878E+01    0.49791E+00    0.86622E-16
    0.49756E+01    0.49602E+00    0.31902E-15
    0.74634E+01    0.49386E+00    0.11766E-14
    0.99512E+01    0.48838E+00    0.53172E-14
    0.12439E+02    0.47752E+00    0.26208E-13
    0.14927E+02    0.46660E+00    0.11413E-12
    0.17415E+02    0.46005E+00    0.32065E-12
    0.19902E+02    0.45304E+00    0.11462E-11
    0.22390E+02    0.44838E+00    0.39403E-11
    0.24878E+02    0.44459E+00    0.10868E-10
    0.27366E+02    0.43832E+00    0.26298E-10
    0.29854E+02    0.43344E+00    0.54674E-10
    0.32341E+02    0.42812E+00    0.12785E-09
    0.34829E+02    0.41860E+00    0.45652E-09
    0.37317E+02    0.41281E+00    0.14748E-08
    0.39805E+02    0.40732E+00    0.64190E-08
    0.42293E+02    0.40238E+00    0.19966E-07
    0.44780E+02    0.39306E+00    0.71073E-07
    0.47268E+02    0.38661E+00    0.26958E-06
    0.49756E+02    0.38188E+00    0.10184E-05
    0.52244E+02    0.37758E+00    0.26188E-05
    0.54732E+02    0.36884E+00    0.57106E-05
    0.57220E+02    0.36173E+00    0.17543E-04
    0.59707E+02    0.35604E+00    0.49172E-04
    0.62195E+02    0.35137E+00    0.12852E-03
    0.64683E+02    0.34605E+00    0.27717E-03
    0.67171E+02    0.33956E+00    0.65279E-03
    0.69659E+02    0.33268E+00    0.16015E-02
    0.72146E+02    0.32876E+00    0.35158E-02
    0.74634E+02    0.32543E+00    0.94869E-02
    0.77122E+02    0.32453E+00    0.14541E-01
    0.79610E+02    0.32495E+00    0.70997E-01
    0.82098E+02    0.33520E+00    0.28352E+00
    0.84585E+02    0.34724E+00    0.43290E+00
    0.87073E+02    0.35795E+00    0.59387E+00
    0.89561E+02    0.36503E+00    0.77192E+00
    0.92049E+02    0.37326E+00    0.87661E+00
    0.94537E+02    0.38292E+00    0.93107E+00
    0.97024E+02    0.39261E+00    0.94581E+00
    0.99512E+02    0.40515E+00    0.98153E+00
    0.10200E+03    0.40009E+00    0.10000E+01
zone i=     42,T= "1dxhc;t= 0.6000E+03y,z:   1  12"
    0.00000E+00    0.50000E+00    0.00000E+00
    0.24878E+01    0.49766E+00    0.20622E-16
    0.49756E+01    0.49370E+00    0.81230E-16
    0.74634E+01    0.48835E+00    0.53134E-15
    0.99512E+01    0.48270E+00    0.39836E-14
    0.12439E+02    0.47549E+00    0.14122E-13
    0.14927E+02    0.47048E+00    0.51573E-13
    0.17415E+02    0.46530E+00    0.12956E-12
    0.19902E+02    0.45742E+00    0.20665E-12
    0.22390E+02    0.44994E+00    0.73867E-12
    0.24878E+02    0.44398E+00    0.21539E-11
    0.27366E+02    0.43990E+00    0.67600E-11
    0.29854E+02    0.43343E+00    0.14743E-10
    0.32341E+02    0.42548E+00    0.51234E-10
    0.34829E+02    0.41912E+00    0.19331E-09
    0.37317E+02    0.40840E+00    0.72352E-09
    0.39805E+02    0.40297E+00    0.32775E-08
    0.42293E+02    0.39790E+00    0.12026E-07
    0.44780E+02    0.39474E+00    0.24137E-07
    0.47268E+02    0.38863E+00    0.57917E-07
    0.49756E+02    0.38487E+00    0.12555E-06
    0.52244E+02    0.37985E+00    0.21825E-06
    0.54732E+02    0.37402E+00    0.28838E-06
    0.57220E+02    0.36782E+00    0.54564E-06
    0.59707E+02    0.36256E+00    0.11474E-05
    0.62195E+02    0.35461E+00    0.25050E-05
    0.64683E+02    0.34503E+00    0.45385E-05
    0.67171E+02    0.33424E+00    0.12994E-04
    0.69659E+02    0.32740E+00    0.48740E-04
    0.72146E+02    0.32485E+00    0.22262E-03
    0.74634E+02    0.31886E+00    0.48051E-03
    0.77122E+02    0.31134E+00    0.72748E-03
    0.79610E+02    0.30223E+00    0.22267E-02
    0.82098E+02    0.29424E+00    0.60978E-02
    0.84585E+02    0.28807E+00    0.11732E-01
    0.87073E+02    0.27760E+00    0.19848E-01
    0.89561E+02    0.26560E+00    0.38373E-01
    0.92049E+02    0.25429E+00    0.47065E-01
    0.94537E+02    0.23281E+00    0.47646E-01
    0.97024E+02    0.20873E+00    0.13992E+00
    0.99512E+02    0.17697E+00    0.48698E+00
    0.10200E+03    0.16004E+00    0.10000E+01
zone i=     42,T= "1dxhc;t= 0.6000E+03y,z:   1  22"
    0.00000E+00    0.49920E+00   -0.66287E-13
    0.24878E+01    0.49654E+00   -0.98809E-13
    0.49756E+01    0.48886E+00   -0.40290E-12
    0.74634E+01    0.48152E+00   -0.89237E-12
    0.99512E+01    0.47268E+00   -0.29028E-11
    0.12439E+02    0.46611E+00   -0.88890E-11
    0.14927E+02    0.46045E+00   -0.27956E-10
    0.17415E+02    0.45181E+00   -0.78338E-10
    0.19902E+02    0.44307E+00   -0.25447E-09
    0.22390E+02    0.43571E+00   -0.56908E-09
    0.24878E+02    0.42608E+00   -0.10689E-08
    0.27366E+02    0.41322E+00   -0.23266E-08
    0.29854E+02    0.40208E+00   -0.40886E-08
    0.32341E+02    0.39030E+00   -0.69782E-08
    0.34829E+02    0.38305E+00   -0.11367E-07
    0.37317E+02    0.37793E+00   -0.17323E-07
    0.39805E+02    0.36750E+00   -0.28655E-07
    0.42293E+02    0.36014E+00   -0.40428E-07
    0.44780E+02    0.35463E+00   -0.75669E-07
    0.47268E+02    0.35074E+00   -0.12257E-06
    0.49756E+02    0.34665E+00   -0.18541E-06
    0.52244E+02    0.34135E+00   -0.35913E-06
    0.54732E+02    0.33425E+00   -0.40011E-06
    0.57220E+02    0.32297E+00   -0.69183E-06
    0.59707E+02    0.31527E+00   -0.12834E-05
    0.62195E+02    0.30238E+00   -0.16106E-05
    0.64683E+02    0.28100E+00   -0.34711E-05
    0.67171E+02    0.26752E+00   -0.44563E-05
    0.69659E+02    0.25477E+00   -0.65585E-05
    0.72146E+02    0.24232E+00   -0.10373E-04
    0.74634E+02    0.23092E+00   -0.11653E-04
    0.77122E+02    0.22077E+00   -0.17068E-04
    0.79610E+02    0.20468E+00   -0.20132E-04
    0.82098E+02    0.19056E+00   -0.15018E-04
    0.84585E+02    0.17997E+00   -0.14183E-04
    0.87073E+02    0.17009E+00   -0.98145E-05
    0.89561E+02    0.15799E+00   -0.27014E-05
    0.92049E+02    0.14354E+00   -0.20000E-04
    0.94537E+02    0.10732E+00   -0.23268E-04
    0.97024E+02    0.60972E-01    0.77789E-04
    0.99512E+02    0.15004E-01    0.24534E-04
    0.10200E+03    0.44798E-02    0.11246E-03
zone i=     42,T= "1dxhc;t= 0.7500E+03y,z:   1   1"
    0.00000E+00    0.50000E+00    0.00000E+00
    0.24878E+01    0.49792E+00    0.14576E-14
    0.49756E+01    0.49603E+00    0.50644E-14
    0.74634E+01    0.49387E+00    0.17061E-13
    0.99512E+01    0.48840E+00    0.68532E-13
    0.12439E+02    0.47756E+00    0.29984E-12
    0.14927E+02    0.46667E+00    0.11758E-11
    0.17415E+02    0.46013E+00    0.30268E-11
    0.19902E+02    0.45314E+00    0.99273E-11
    0.22390E+02    0.44849E+00    0.31041E-10
    0.24878E+02    0.44470E+00    0.80660E-10
    0.27366E+02    0.43846E+00    0.18977E-09
    0.29854E+02    0.43359E+00    0.39402E-09
    0.32341E+02    0.42828E+00    0.88776E-09
    0.34829E+02    0.41879E+00    0.29143E-08
    0.37317E+02    0.41302E+00    0.84406E-08
    0.39805E+02    0.40755E+00    0.32536E-07
    0.42293E+02    0.40263E+00    0.89439E-07
    0.44780E+02    0.39335E+00    0.28100E-06
    0.47268E+02    0.38693E+00    0.92202E-06
    0.49756E+02    0.38223E+00    0.29841E-05
    0.52244E+02    0.37796E+00    0.67798E-05
    0.54732E+02    0.36928E+00    0.13320E-04
    0.57220E+02    0.36223E+00    0.34000E-04
    0.59707E+02    0.35659E+00    0.73196E-04
    0.62195E+02    0.35198E+00    0.14356E-03
    0.64683E+02    0.34674E+00    0.26198E-03
    0.67171E+02    0.34039E+00    0.54470E-03
    0.69659E+02    0.33382E+00    0.95255E-03
    0.72146E+02    0.33009E+00    0.15243E-02
    0.74634E+02    0.32792E+00    0.11312E-01
    0.77122E+02    0.32803E+00    0.12244E+00
    0.79610E+02    0.33126E+00    0.29524E+00
    0.82098E+02    0.34292E+00    0.42624E+00
    0.84585E+02    0.35449E+00    0.54717E+00
    0.87073E+02    0.36425E+00    0.67998E+00
    0.89561E+02    0.37049E+00    0.81837E+00
    0.92049E+02    0.37777E+00    0.89947E+00
    0.94537E+02    0.38637E+00    0.94397E+00
    0.97024E+02    0.39489E+00    0.95502E+00
    0.99512E+02    0.40606E+00    0.98588E+00
    0.10200E+03    0.40009E+00    0.10000E+01
zone i=     42,T= "1dxhc;t= 0.7500E+03y,z:   1  12"
    0.00000E+00    0.50000E+00    0.00000E+00
    0.24878E+01    0.49766E+00    0.28172E-15
    0.49756E+01    0.49372E+00    0.10395E-14
    0.74634E+01    0.48837E+00    0.61274E-14
    0.99512E+01    0.48273E+00    0.40270E-13
    0.12439E+02    0.47553E+00    0.12910E-12
    0.14927E+02    0.47053E+00    0.43065E-12
    0.17415E+02    0.46537E+00    0.10102E-11
    0.19902E+02    0.45750E+00    0.14908E-11
    0.22390E+02    0.45004E+00    0.49288E-11
    0.24878E+02    0.44410E+00    0.13286E-10
    0.27366E+02    0.44003E+00    0.37904E-10
    0.29854E+02    0.43357E+00    0.76732E-10
    0.32341E+02    0.42564E+00    0.24481E-09
    0.34829E+02    0.41931E+00    0.83047E-09
    0.37317E+02    0.40862E+00    0.28130E-08
    0.39805E+02    0.40321E+00    0.11207E-07
    0.42293E+02    0.39816E+00    0.36851E-07
    0.44780E+02    0.39502E+00    0.70150E-07
    0.47268E+02    0.38893E+00    0.15854E-06
    0.49756E+02    0.38520E+00    0.32346E-06
    0.52244E+02    0.38021E+00    0.54890E-06
    0.54732E+02    0.37440E+00    0.72557E-06
    0.57220E+02    0.36825E+00    0.12985E-05
    0.59707E+02    0.36301E+00    0.25017E-05
    0.62195E+02    0.35509E+00    0.51193E-05
    0.64683E+02    0.34551E+00    0.88216E-05
    0.67171E+02    0.33466E+00    0.23785E-04
    0.69659E+02    0.32771E+00    0.84198E-04
    0.72146E+02    0.32507E+00    0.34047E-03
    0.74634E+02    0.31877E+00    0.70433E-03
    0.77122E+02    0.31080E+00    0.10779E-02
    0.79610E+02    0.30115E+00    0.28875E-02
    0.82098E+02    0.29279E+00    0.70937E-02
    0.84585E+02    0.28645E+00    0.13023E-01
    0.87073E+02    0.27584E+00    0.21403E-01
    0.89561E+02    0.26386E+00    0.39969E-01
    0.92049E+02    0.25267E+00    0.48787E-01
    0.94537E+02    0.23154E+00    0.48926E-01
    0.97024E+02    0.20788E+00    0.14012E+00
    0.99512E+02    0.17666E+00    0.48653E+00
    0.10200E+03    0.16004E+00    0.10000E+01
zone i=     42,T= "1dxhc;t= 0.7500E+03y,z:   1  22"
    0.00000E+00    0.49920E+00   -0.45394E-12
    0.24878E+01    0.49654E+00   -0.60684E-12
    0.49756E+01    0.48885E+00   -0.22503E-11
    0.74634E+01    0.48152E+00   -0.46700E-11
    0.99512E+01    0.47268E+00   -0.13969E-10
    0.12439E+02    0.46611E+00   -0.37677E-10
    0.14927E+02    0.46044E+00   -0.10448E-09
    0.17415E+02    0.45180E+00   -0.25908E-09
    0.19902E+02    0.44305E+00   -0.71823E-09
    0.22390E+02    0.43570E+00   -0.14173E-08
    0.24878E+02    0.42607E+00   -0.24896E-08
    0.27366E+02    0.41321E+00   -0.50901E-08
    0.29854E+02    0.40206E+00   -0.85330E-08
    0.32341E+02    0.39028E+00   -0.14046E-07
    0.34829E+02    0.38303E+00   -0.22568E-07
    0.37317E+02    0.37791E+00   -0.34511E-07
    0.39805E+02    0.36748E+00   -0.57268E-07
    0.42293E+02    0.36011E+00   -0.84026E-07
    0.44780E+02    0.35460E+00   -0.15277E-06
    0.47268E+02    0.35070E+00   -0.23916E-06
    0.49756E+02    0.34662E+00   -0.36083E-06
    0.52244E+02    0.34132E+00   -0.65370E-06
    0.54732E+02    0.33421E+00   -0.78669E-06
    0.57220E+02    0.32293E+00   -0.13313E-05
    0.59707E+02    0.31522E+00   -0.22518E-05
    0.62195E+02    0.30232E+00   -0.28702E-05
    0.64683E+02    0.28093E+00   -0.56288E-05
    0.67171E+02    0.26744E+00   -0.70116E-05
    0.69659E+02    0.25469E+00   -0.10004E-04
    0.72146E+02    0.24222E+00   -0.15116E-04
    0.74634E+02    0.23082E+00   -0.17235E-04
    0.77122E+02    0.22067E+00   -0.24858E-04
    0.79610E+02    0.20456E+00   -0.29508E-04
    0.82098E+02    0.19045E+00   -0.25465E-04
    0.84585E+02    0.17985E+00   -0.26531E-04
    0.87073E+02    0.16997E+00   -0.23232E-04
    0.89561E+02    0.15787E+00   -0.19400E-04
    0.92049E+02    0.14343E+00   -0.37445E-04
    0.94537E+02    0.10724E+00   -0.38578E-04
    0.97024E+02    0.60923E-01    0.64501E-04
    0.99512E+02    0.14992E-01    0.23495E-04
    0.10200E+03    0.44765E-02    0.10967E-03
zone i=     42,T= "1dxhc;t= 0.9000E+03y,z:   1   1"
    0.00000E+00    0.50000E+00    0.00000E+00
    0.24878E+01    0.49792E+00    0.13165E-13
    0.49756E+01    0.49603E+00    0.43738E-13