          Title="3D head and conc at t=   0.2500E+04 days"
          variables="x","y","z","head","conc"
          zone i=      22, j=      42, k=      42, T="3D"
  0.00000000E+00  0.00000000E+00  0.00000000E+00  0.50000000E+00  0.00000000E+00
  0.00000000E+00  0.00000000E+00  0.97615278E+00  0.50000000E+00  0.00000000E+00
  0.00000000E+00  0.00000000E+00  0.19523056E+01  0.50000000E+00  0.00000000E+00
  0.00000000E+00  0.00000000E+00  0.29284583E+01  0.50000000E+00  0.00000000E+00
  0.00000000E+00  0.00000000E+00  0.39046111E+01  0.50000000E+00  0.00000000E+00
  0.00000000E+00  0.00000000E+00  0.48807639E+01  0.50000000E+00  0.00000000E+00
  0.00000000E+00  0.00000000E+00  0.58569167E+01  0.50000000E+00  0.00000000E+00
  0.00000000E+00  0.00000000E+00  0.68330695E+01  0.50000000E+00  0.00000000E+00
  0.00000000E+00  0.00000000E+00  0.78092222E+01  0.50000000E+00  0.00000000E+00
  0.00000000E+00  0.00000000E+00  0.87853750E+01  0.50000000E+00  0.00000000E+00
  0.00000000E+00  0.00000000E+00  0.97615278E+01  0.50000000E+00  0.00000000E+00
  0.00000000E+00  0.00000000E+00  0.10737681E+02  0.50000000E+00  0.00000000E+00
  0.00000000E+00  0.00000000E+00  0.11713833E+02  0.50000000E+00  0.00000000E+00
  0.00000000E+00  0.00000000E+00  0.12689986E+02  0.50000000E+00  0.00000000E+00
  0.00000000E+00  0.00000000E+00  0.13666139E+02  0.50000000E+00  0.00000000E+00
  0.00000000E+00  0.00000000E+00  0.14642292E+02  0.50000000E+00  0.00000000E+00
  0.00000000E+00  0.00000000E+00  0.15618444E+02  0.50000000E+00  0.00000000E+00
  0.00000000E+00  0.00000000E+00  0.16594597E+02  0.50000000E+00  0.00000000E+00
  0.00000000E+00  0.00000000E+00  0.17570750E+02  0.50000000E+00  0.00000000E+00
  0.00000000E+00  0.00000000E+00  0.18546903E+02  0.50000000E+00  0.00000000E+00
  0.00000000E+00  0.00000000E+00  0.19523056E+02  0.50000000E+00  0.00000000E+00
  0.00000000E+00  0.00000000E+00  0.20499208E+02  0.49919729E+00 -0.13038114E-09
  0.00000000E+00  0.24878049E+01  0.00000000E+00  0.50000000E+00  0.00000000E+00
  0.00000000E+00  0.24878049E+01  0.97615365E+00  0.50000000E+00  0.00000000E+00
  0.00000000E+00  0.24878049E+01  0.19523073E+01  0.50000000E+00  0.00000000E+00
  0.00000000E+00  0.24878049E+01  0.29284610E+01  0.50000000E+00  0.00000000E+00
  0.00000000E+00  0.24878049E+01  0.39046146E+01  0.50000000E+00  0.00000000E+00
  0.00000000E+00  0.24878049E+01  0.48807683E+01  0.50000000E+00  0.00000000E+00
  0.00000000E+00  0.24878049E+01  0.58569219E+01  0.50000000E+00  0.00000000E+00
  0.00000000E+00  0.24878049E+01  0.68330756E+01  0.50000000E+00  0.00000000E+00
  0.00000000E+00  0.24878049E+01  0.78092292E+01  0.50000000E+00  0.00000000E+00
  0.00000000E+00  0.24878049E+01  0.87853829E+01  0.50000000E+00  0.00000000E+00
  0.00000000E+00  0.24878049E+01  0.97615365E+01  0.50000000E+00  0.00000000E+00
  0.00000000E+00  0.24878049E+01  0.10737690E+02  0.50000000E+00  0.00000000E+00
  0.00000000E+00  0.24878049E+01  0.11713844E+02  0.50000000E+00  0.00000000E+00
  0.00000000E+00  0.24878049E+01  0.12689997E+02  0.50000000E+00  0.00000000E+00
  0.00000000E+00  0.24878049E+01  0.13666151E+02  0.50000000E+00  0.00000000E+00
  0.00000000E+00  0.24878049E+01  0.14642305E+02  0.50000000E+00  0.00000000E+00
  0.00000000E+00  0.24878049E+01  0.15618458E+02  0.50000000E+00  0.00000000E+00
  0.00000000E+00  0.24878049E+01  0.16594612E+02  0.50000000E+00  0.00000000E+00
  0.00000000E+00  0.24878049E+01  0.17570766E+02  0.50000000E+00  0.00000000E+00
  0.00000000E+00  0.24878049E+01  0.18546919E+02  0.50000000E+00  0.00000000E+00
  0.00000000E+00  0.24878049E+01  0.19523073E+02  0.50000000E+00  0.00000000E+00
  0.00000000E+00  0.24878049E+01  0.20499227E+02  0.49921623E+00 -0.10257481E-09
  0.00000000E+00  0.49756098E+01  0.00000000E+00  0.50000000E+00  0.00000000E+00
  0.00000000E+00  0.49756098E+01  0.97615033E+00  0.50000000E+00  0.00000000E+00
  0.00000000E+00  0.49756098E+01  0.19523007E+01  0.50000000E+00  0.00000000E+00
  0.00000000E+00  0.49756098E+01  0.29284510E+01  0.50000000E+00  0.00000000E+00
  0.00000000E+00  0.49756098E+01  0.39046013E+01  0.50000000E+00  0.00000000E+00
  0.00000000E+00  0.49756098E+01  0.48807517E+01  0.50000000E+00  0.00000000E+00
  0.00000000E+00  0.49756098E+01  0.58569020E+01  0.50000000E+00  0.00000000E+00
  0.00000000E+00  0.49756098E+01  0.68330523E+01  0.50000000E+00  0.00000000E+00
  0.00000000E+00  0.49756098E+01  0.78092027E+01  0.50000000E+00  0.00000000E+00
  0.00000000E+00  0.49756098E+01  0.87853530E+01  0.50000000E+00  0.00000000E+00
  0.00000000E+00  0.49756098E+01  0.97615033E+01  0.50000000E+00  0.00000000E+00
  0.00000000E+00  0.49756098E+01  0.10737654E+02  0.50000000E+00  0.00000000E+00
  0.00000000E+00  0.49756098E+01  0.11713804E+02  0.50000000E+00  0.00000000E+00
  0.00000000E+00  0.49756098E+01  0.12689954E+02  0.50000000E+00  0.00000000E+00
  0.00000000E+00  0.49756098E+01  0.13666105E+02  0.50000000E+00  0.00000000E+00
  0.00000000E+00  0.49756098E+01  0.14642255E+02  0.50000000E+00  0.00000000E+00
  0.00000000E+00  0.49756098E+01  0.15618405E+02  0.50000000E+00  0.00000000E+00
  0.00000000E+00  0.49756098E+01  0.16594556E+02  0.50000000E+00  0.00000000E+00
  0.00000000E+00  0.49756098E+01  0.17570706E+02  0.50000000E+00  0.00000000E+00
  0.00000000E+00  0.49756098E+01  0.18546856E+02  0.50000000E+00  0.00000000E+00
  0.00000000E+00  0.49756098E+01  0.19523007E+02  0.50000000E+00  0.00000000E+00
  0.00000000E+00  0.49756098E+01  0.20499157E+02  0.49914633E+00 -0.83915452E-10
  0.00000000E+00  0.74634146E+01  0.00000000E+00  0.50000000E+00  0.00000000E+00
  0.00000000E+00  0.74634146E+01  0.97615152E+00  0.50000000E+00  0.00000000E+00
  0.00000000E+00  0.74634146E+01  0.19523030E+01  0.50000000E+00  0.00000000E+00
  0.00000000E+00  0.74634146E+01  0.29284546E+01  0.50000000E+00  0.00000000E+00
  0.00000000E+00  0.74634146E+01  0.39046061E+01  0.50000000E+00  0.00000000E+00
  0.00000000E+00  0.74634146E+01  0.48807576E+01  0.50000000E+00  0.00000000E+00
  0.00000000E+00  0.74634146E+01  0.58569091E+01  0.50000000E+00  0.00000000E+00
  0.00000000E+00  0.74634146E+01  0.68330606E+01  0.50000000E+00  0.00000000E+00
  0.00000000E+00  0.74634146E+01  0.78092122E+01  0.50000000E+00  0.00000000E+00
  0.00000000E+00  0.74634146E+01  0.87853637E+01  0.50000000E+00  0.00000000E+00
  0.00000000E+00  0.74634146E+01  0.97615152E+01  0.50000000E+00  0.00000000E+00
  0.00000000E+00  0.74634146E+01  0.10737667E+02  0.50000000E+00  0.00000000E+00
  0.00000000E+00  0.74634146E+01  0.11713818E+02  0.50000000E+00  0.00000000E+00
  0.00000000E+00  0.74634146E+01  0.12689970E+02  0.50000000E+00  0.00000000E+00
  0.00000000E+00  0.74634146E+01  0.13666121E+02  0.50000000E+00  0.00000000E+00
  0.00000000E+00  0.74634146E+01  0.14642273E+02  0.50000000E+00  0.00000000E+00
  0.00000000E+00  0.74634146E+01  0.15618424E+02  0.50000000E+00  0.00000000E+00
  0.00000000E+00  0.74634146E+01  0.16594576E+02  0.50000000E+00  0.00000000E+00
  0.00000000E+00  0.74634146E+01  0.17570727E+02  0.50000000E+00  0.00000000E+00
  0.00000000E+00  0.74634146E+01  0.18546879E+02  0.50000000E+00  0.00000000E+00
  0.00000000E+00  0.74634146E+01  0.19523030E+02  0.50000000E+00  0.00000000E+00
  0.00000000E+00  0.74634146E+01  0.20499182E+02  0.49917183E+00 -0.66912525E-10
  0.00000000E+00  0.99512195E+01  0.00000000E+00  0.50000000E+00  0.00000000E+00
  0.00000000E+00  0.99512195E+01  0.97615248E+00  0.50000000E+00  0.00000000E+00
  0.00000000E+00  0.99512195E+01  0.19523050E+01  0.50000000E+00  0.00000000E+00
  0.00000000E+00  0.99512195E+01  0.29284574E+01  0.50000000E+00  0.00000000E+00
  0.00000000E+00  0.99512195E+01  0.39046099E+01  0.50000000E+00  0.00000000E+00
  0.00000000E+00  0.99512195E+01  0.48807624E+01  0.50000000E+00  0.00000000E+00
  0.00000000E+00  0.99512195E+01  0.58569149E+01  0.50000000E+00  0.00000000E+00
  0.00000000E+00  0.99512195E+01  0.68330674E+01  0.50000000E+00  0.00000000E+00
  0.00000000E+00  0.99512195E+01  0.78092198E+01  0.50000000E+00  0.00000000E+00
  0.00000000E+00  0.99512195E+01  0.87853723E+01  0.50000000E+00  0.00000000E+00
  0.00000000E+00  0.99512195E+01  0.97615248E+01  0.50000000E+00  0.00000000E+00
  0.00000000E+00  0.99512195E+01  0.10737677E+02  0.50000000E+00  0.00000000E+00
  0.00000000E+00  0.99512195E+01  0.11713830E+02  0.50000000E+00  0.00000000E+00
  0.00000000E+00  0.99512195E+01  0.12689982E+02  0.50000000E+00  0.00000000E+00
  0.00000000E+00  0.99512195E+01  0.13666135E+02  0.50000000E+00  0.00000000E+00
  0.00000000E+00  0.99512195E+01  0.14642287E+02  0.50000000E+00  0.00000000E+00
  0.00000000E+00  0.99512195E+01  0.15618440E+02  0.50000000E+00  0.00000000E+00
  0.00000000E+00  0.99512195E+01  0.16594592E+02  0.50000000E+00  0.00000000E+00
  0.00000000E+00  0.99512195E+01  0.17570745E+02  0.50000000E+00  0.00000000E+00
  0.00000000E+00  0.99512195E+01  0.18546897E+02  0.50000000E+00  0.00000000E+00
  0.00000000E+00  0.99512195E+01  0.19523050E+02  0.50000000E+00  0.00000000E+00
  0.00000000E+00  0.99512195E+01  0.20499202E+02  0.49919230E+00 -0.61113217E-10
  0.00000000E+00  0.12439024E+02  0.00000000E+00  0.50000000E+00  0.00000000E+00
  0.00000000E+00  0.12439024E+02  0.97615099E+00  0.50000000E+00  0.00000000E+00
  0.00000000E+00  0.12439024E+02  0.19523020E+01  0.50000000E+00  0.00000000E+00
  0.00000000E+00  0.12439024E+02  0.29284530E+01  0.50000000E+00  0.00000000E+00
  0.00000000E+00  0.12439024E+02  0.39046040E+01  0.50000000E+00  0.00000000E+00
  0.00000000E+00  0.12439024E+02  0.48807550E+01  0.50000000E+00  0.00000000E+00
  0.00000000E+00  0.12439024E+02  0.58569059E+01  0.50000000E+00  0.00000000E+00
  0.00000000E+00  0.12439024E+02  0.68330569E+01  0.50000000E+00  0.00000000E+00
  0.00000000E+00  0.12439024E+02  0.78092079E+01  0.50000000E+00  0.00000000E+00
  0.00000000E+00  0.12439024E+02  0.87853589E+01  0.50000000E+00  0.00000000E+00
  0.00000000E+00  0.12439024E+02  0.97615099E+01  0.50000000E+00  0.00000000E+00
  0.00000000E+00  0.12439024E+02  0.10737661E+02  0.50000000E+00  0.00000000E+00
  0.00000000E+00  0.12439024E+02  0.11713812E+02  0.50000000E+00  0.00000000E+00
  0.00000000E+00  0.12439024E+02  0.12689963E+02  0.50000000E+00  0.00000000E+00
  0.00000000E+00  0.12439024E+02  0.13666114E+02  0.50000000E+00  0.00000000E+00
  0.00000000E+00  0.12439024E+02  0.14642265E+02  0.50000000E+00  0.00000000E+00
  0.00000000E+00  0.12439024E+02  0.15618416E+02  0.50000000E+00  0.00000000E+00
  0.00000000E+00  0.12439024E+02  0.16594567E+02  0.50000000E+00  0.00000000E+00
  0.00000000E+00  0.12439024E+02  0.17570718E+02  0.50000000E+00  0.00000000E+00
  0.00000000E+00  0.12439024E+02  0.18546869E+02  0.50000000E+00  0.00000000E+00
  0.00000000E+00  0.12439024E+02  0.19523020E+02  0.50000000E+00  0.00000000E+00
  0.00000000E+00  0.12439024E+02  0.20499171E+02  0.49916025E+00 -0.81787000E-10
  0.00000000E+00  0.14926829E+02  0.00000000E+00  0.50000000E+00  0.00000000E+00
  0.00000000E+00  0.14926829E+02  0.97616176E+00  0.50000000E+00  0.00000000E+00
  0.00000000E+00  0.14926829E+02  0.19523235E+01  0.50000000E+00  0.00000000E+00
  0.00000000E+00  0.14926829E+02  0.29284853E+01  0.50000000E+00  0.00000000E+00
  0.00000000E+00  0.14926829E+02  0.39046470E+01  0.50000000E+00  0.00000000E+00
  0.00000000E+00  0.14926829E+02  0.48808088E+01  0.50000000E+00  0.00000000E+00
  0.00000000E+00  0.14926829E+02  0.58569705E+01  0.50000000E+00  0.00000000E+00
  0.00000000E+00  0.14926829E+02  0.68331323E+01  0.50000000E+00  0.00000000E+00
  0.00000000E+00  0.14926829E+02  0.78092941E+01  0.50000000E+00  0.00000000E+00
  0.00000000E+00  0.14926829E+02  0.87854558E+01  0.50000000E+00  0.00000000E+00
  0.00000000E+00  0.14926829E+02  0.97616176E+01  0.50000000E+00  0.00000000E+00
  0.00000000E+00  0.14926829E+02  0.10737779E+02  0.50000000E+00  0.00000000E+00
  0.00000000E+00  0.14926829E+02  0.11713941E+02  0.50000000E+00  0.00000000E+00
  0.00000000E+00  0.14926829E+02  0.12690103E+02  0.50000000E+00  0.00000000E+00
  0.00000000E+00  0.14926829E+02  0.13666265E+02  0.50000000E+00  0.00000000E+00
  0.00000000E+00  0.14926829E+02  0.14642426E+02  0.50000000E+00  0.00000000E+00
  0.00000000E+00  0.14926829E+02  0.15618588E+02  0.50000000E+00  0.00000000E+00
  0.00000000E+00  0.14926829E+02  0.16594750E+02  0.50000000E+00  0.00000000E+00
  0.00000000E+00  0.14926829E+02  0.17570912E+02  0.50000000E+00  0.00000000E+00
  0.00000000E+00  0.14926829E+02  0.18547073E+02  0.50000000E+00  0.00000000E+00
  0.00000000E+00  0.14926829E+02  0.19523235E+02  0.50000000E+00  0.00000000E+00
  0.00000000E+00  0.14926829E+02  0.20499397E+02  0.49938693E+00 -0.95109022E-10
  0.00000000E+00  0.17414634E+02  0.00000000E+00  0.50000000E+00  0.00000000E+00
  0.00000000E+00  0.17414634E+02  0.97616882E+00  0.50000000E+00  0.00000000E+00
  0.00000000E+00  0.17414634E+02  0.19523376E+01  0.50000000E+00  0.00000000E+00
  0.00000000E+00  0.17414634E+02  0.29285065E+01  0.50000000E+00  0.00000000E+00
  0.00000000E+00  0.17414634E+02  0.39046753E+01  0.50000000E+00  0.00000000E+00
  0.00000000E+00  0.17414634E+02  0.48808441E+01  0.50000000E+00  0.00000000E+00
  0.00000000E+00  0.17414634E+02  0.58570129E+01  0.50000000E+00  0.00000000E+00
  0.00000000E+00  0.17414634E+02  0.68331817E+01  0.50000000E+00  0.00000000E+00
  0.00000000E+00  0.17414634E+02  0.78093506E+01  0.50000000E+00  0.00000000E+00
  0.00000000E+00  0.17414634E+02  0.87855194E+01  0.50000000E+00  0.00000000E+00
  0.00000000E+00  0.17414634E+02  0.97616882E+01  0.50000000E+00  0.00000000E+00
  0.00000000E+00  0.17414634E+02  0.10737857E+02  0.50000000E+00  0.00000000E+00
  0.00000000E+00  0.17414634E+02  0.11714026E+02  0.50000000E+00  0.00000000E+00
  0.00000000E+00  0.17414634E+02  0.12690195E+02  0.50000000E+00  0.00000000E+00
  0.00000000E+00  0.17414634E+02  0.13666363E+02  0.50000000E+00  0.00000000E+00
  0.00000000E+00  0.17414634E+02  0.14642532E+02  0.50000000E+00  0.00000000E+00
  0.00000000E+00  0.17414634E+02  0.15618701E+02  0.50000000E+00  0.00000000E+00
  0.00000000E+00  0.17414634E+02  0.16594870E+02  0.50000000E+00  0.00000000E+00
  0.00000000E+00  0.17414634E+02  0.17571039E+02  0.50000000E+00  0.00000000E+00
  0.00000000E+00  0.17414634E+02  0.18547208E+02  0.50000000E+00  0.00000000E+00
  0.00000000E+00  0.17414634E+02  0.19523376E+02  0.50000000E+00  0.00000000E+00
  0.00000000E+00  0.17414634E+02  0.20499545E+02  0.49953552E+00 -0.69817813E-10
  0.00000000E+00  0.19902439E+02  0.00000000E+00  0.50000000E+00  0.00000000E+00
  0.00000000E+00  0.19902439E+02  0.97615656E+00  0.50000000E+00  0.00000000E+00
  0.00000000E+00  0.19902439E+02  0.19523131E+01  0.50000000E+00  0.00000000E+00
  0.00000000E+00  0.19902439E+02  0.29284697E+01  0.50000000E+00  0.00000000E+00
  0.00000000E+00  0.19902439E+02  0.39046262E+01  0.50000000E+00  0.00000000E+00
  0.00000000E+00  0.19902439E+02  0.48807828E+01  0.50000000E+00  0.00000000E+00
  0.00000000E+00  0.19902439E+02  0.58569393E+01  0.50000000E+00  0.00000000E+00
  0.00000000E+00  0.19902439E+02  0.68330959E+01  0.50000000E+00  0.00000000E+00
  0.00000000E+00  0.19902439E+02  0.78092524E+01  0.50000000E+00  0.00000000E+00
  0.00000000E+00  0.19902439E+02  0.87854090E+01  0.50000000E+00  0.00000000E+00
  0.00000000E+00  0.19902439E+02  0.97615656E+01  0.50000000E+00  0.00000000E+00
  0.00000000E+00  0.19902439E+02  0.10737722E+02  0.50000000E+00  0.00000000E+00
  0.00000000E+00  0.19902439E+02  0.11713879E+02  0.50000000E+00  0.00000000E+00
  0.00000000E+00  0.19902439E+02  0.12690035E+02  0.50000000E+00  0.00000000E+00
  0.00000000E+00  0.19902439E+02  0.13666192E+02  0.50000000E+00  0.00000000E+00
  0.00000000E+00  0.19902439E+02  0.14642348E+02  0.50000000E+00  0.00000000E+00
  0.00000000E+00  0.19902439E+02  0.15618505E+02  0.50000000E+00  0.00000000E+00
  0.00000000E+00  0.19902439E+02  0.16594661E+02  0.50000000E+00  0.00000000E+00
  0.00000000E+00  0.19902439E+02  0.17570818E+02  0.50000000E+00  0.00000000E+00
  0.00000000E+00  0.19902439E+02  0.18546975E+02  0.50000000E+00  0.00000000E+00
  0.00000000E+00  0.19902439E+02  0.19523131E+02  0.50000000E+00  0.00000000E+00
  0.00000000E+00  0.19902439E+02  0.20499288E+02  0.49927609E+00 -0.39116744E-10
  0.00000000E+00  0.22390244E+02  0.00000000E+00  0.50000000E+00  0.00000000E+00
  0.00000000E+00  0.22390244E+02  0.97615184E+00  0.50000000E+00  0.00000000E+00
  0.00000000E+00  0.22390244E+02  0.19523037E+01  0.50000000E+00  0.00000000E+00
  0.00000000E+00  0.22390244E+02  0.29284555E+01  0.50000000E+00  0.00000000E+00
  0.00000000E+00  0.22390244E+02  0.39046074E+01  0.50000000E+00  0.00000000E+00
  0.00000000E+00  0.22390244E+02  0.48807592E+01  0.50000000E+00  0.00000000E+00
  0.00000000E+00  0.22390244E+02  0.58569111E+01  0.50000000E+00  0.00000000E+00
  0.00000000E+00  0.22390244E+02  0.68330629E+01  0.50000000E+00  0.00000000E+00
  0.00000000E+00  0.22390244E+02  0.78092147E+01  0.50000000E+00  0.00000000E+00
  0.00000000E+00  0.22390244E+02  0.87853666E+01  0.50000000E+00  0.00000000E+00
  0.00000000E+00  0.22390244E+02  0.97615184E+01  0.50000000E+00  0.00000000E+00
  0.00000000E+00  0.22390244E+02  0.10737670E+02  0.50000000E+00  0.00000000E+00
  0.00000000E+00  0.22390244E+02  0.11713822E+02  0.50000000E+00  0.00000000E+00
  0.00000000E+00  0.22390244E+02  0.12689974E+02  0.50000000E+00  0.00000000E+00
  0.00000000E+00  0.22390244E+02  0.13666126E+02  0.50000000E+00  0.00000000E+00
  0.00000000E+00  0.22390244E+02  0.14642278E+02  0.50000000E+00  0.00000000E+00
  0.00000000E+00  0.22390244E+02  0.15618429E+02  0.50000000E+00  0.00000000E+00
  0.00000000E+00  0.22390244E+02  0.16594581E+02  0.50000000E+00  0.00000000E+00
  0.00000000E+00  0.22390244E+02  0.17570733E+02  0.50000000E+00  0.00000000E+00
  0.00000000E+00  0.22390244E+02  0.18546885E+02  0.50000000E+00  0.00000000E+00
  0.00000000E+00  0.22390244E+02  0.19523037E+02  0.50000000E+00  0.00000000E+00
  0.00000000E+00  0.22390244E+02  0.20499189E+02  0.49917604E+00 -0.20390535E-10
  0.00000000E+00  0.24878049E+02  0.00000000E+00  0.50000000E+00  0.00000000E+00
  0.00000000E+00  0.24878049E+02  0.97614459E+00  0.50000000E+00  0.00000000E+00
  0.00000000E+00  0.24878049E+02  0.19522892E+01  0.50000000E+00  0.00000000E+00
  0.00000000E+00  0.24878049E+02  0.29284338E+01  0.50000000E+00  0.00000000E+00
  0.00000000E+00  0.24878049E+02  0.39045783E+01  0.50000000E+00  0.00000000E+00
  0.00000000E+00  0.24878049E+02  0.48807229E+01  0.50000000E+00  0.00000000E+00
  0.00000000E+00  0.24878049E+02  0.58568675E+01  0.50000000E+00  0.00000000E+00
  0.00000000E+00  0.24878049E+02  0.68330121E+01  0.50000000E+00  0.00000000E+00
  0.00000000E+00  0.24878049E+02  0.78091567E+01  0.50000000E+00  0.00000000E+00
  0.00000000E+00  0.24878049E+02  0.87853013E+01  0.50000000E+00  0.00000000E+00
  0.00000000E+00  0.24878049E+02  0.97614459E+01  0.50000000E+00  0.00000000E+00
  0.00000000E+00  0.24878049E+02  0.10737590E+02  0.50000000E+00  0.00000000E+00
  0.00000000E+00  0.24878049E+02  0.11713735E+02  0.50000000E+00  0.00000000E+00
  0.00000000E+00  0.24878049E+02  0.12689880E+02  0.50000000E+00  0.00000000E+00
  0.00000000E+00  0.24878049E+02  0.13666024E+02  0.50000000E+00  0.00000000E+00
  0.00000000E+00  0.24878049E+02  0.14642169E+02  0.50000000E+00  0.00000000E+00
  0.00000000E+00  0.24878049E+02  0.15618313E+02  0.50000000E+00  0.00000000E+00
  0.00000000E+00  0.24878049E+02  0.16594458E+02  0.50000000E+00  0.00000000E+00
  0.00000000E+00  0.24878049E+02  0.17570603E+02  0.50000000E+00  0.00000000E+00
  0.00000000E+00  0.24878049E+02  0.18546747E+02  0.50000000E+00  0.00000000E+00
  0.00000000E+00  0.24878049E+02  0.19522892E+02  0.50000000E+00  0.00000000E+00
  0.00000000E+00  0.24878049E+02  0.20499036E+02  0.49902172E+00  0.84193070E-13
  0.00000000E+00  0.27365854E+02  0.00000000E+00  0.50000000E+00  0.00000000E+00
  0.00000000E+00  0.27365854E+02  0.97611831E+00  0.50000000E+00  0.00000000E+00
  0.00000000E+00  0.27365854E+02  0.19522366E+01  0.50000000E+00  0.00000000E+00
  0.00000000E+00  0.27365854E+02  0.29283549E+01  0.50000000E+00  0.00000000E+00
  0.00000000E+00  0.27365854E+02  0.39044732E+01  0.50000000E+00  0.00000000E+00
  0.00000000E+00  0.27365854E+02  0.48805915E+01  0.50000000E+00  0.00000000E+00
  0.00000000E+00  0.27365854E+02  0.58567098E+01  0.50000000E+00  0.00000000E+00
  0.00000000E+00  0.27365854E+02  0.68328281E+01  0.50000000E+00  0.00000000E+00
  0.00000000E+00  0.27365854E+02  0.78089465E+01  0.50000000E+00  0.00000000E+00
  0.00000000E+00  0.27365854E+02  0.87850648E+01  0.50000000E+00  0.00000000E+00
  0.00000000E+00  0.27365854E+02  0.97611831E+01  0.50000000E+00  0.00000000E+00
  0.00000000E+00  0.27365854E+02  0.10737301E+02  0.50000000E+00  0.00000000E+00
  0.00000000E+00  0.27365854E+02  0.11713420E+02  0.50000000E+00  0.00000000E+00
  0.00000000E+00  0.27365854E+02  0.12689538E+02  0.50000000E+00  0.00000000E+00
  0.00000000E+00  0.27365854E+02  0.13665656E+02  0.50000000E+00  0.00000000E+00
  0.00000000E+00  0.27365854E+02  0.14641775E+02  0.50000000E+00  0.00000000E+00
  0.00000000E+00  0.27365854E+02  0.15617893E+02  0.50000000E+00  0.00000000E+00
  0.00000000E+00  0.27365854E+02  0.16594011E+02  0.50000000E+00  0.00000000E+00
  0.00000000E+00  0.27365854E+02  0.17570130E+02  0.50000000E+00  0.00000000E+00
  0.00000000E+00  0.27365854E+02  0.18546248E+02  0.50000000E+00  0.00000000E+00
  0.00000000E+00  0.27365854E+02  0.19522366E+02  0.50000000E+00  0.00000000E+00
  0.00000000E+00  0.27365854E+02  0.20498484E+02  0.49846573E+00  0.14520054E-10
  0.00000000E+00  0.29853659E+02  0.00000000E+00  0.50000000E+00  0.00000000E+00
  0.00000000E+00  0.29853659E+02  0.97611145E+00  0.50000000E+00  0.00000000E+00
  0.00000000E+00  0.29853659E+02  0.19522229E+01  0.50000000E+00  0.00000000E+00
  0.00000000E+00  0.29853659E+02  0.29283344E+01  0.50000000E+00  0.00000000E+00
  0.00000000E+00  0.29853659E+02  0.39044458E+01  0.50000000E+00  0.00000000E+00
  0.00000000E+00  0.29853659E+02  0.48805573E+01  0.50000000E+00  0.00000000E+00
  0.00000000E+00  0.29853659E+02  0.58566687E+01  0.50000000E+00  0.00000000E+00
  0.00000000E+00  0.29853659E+02  0.68327802E+01  0.50000000E+00  0.00000000E+00
  0.00000000E+00  0.29853659E+02  0.78088916E+01  0.50000000E+00  0.00000000E+00
  0.00000000E+00  0.29853659E+02  0.87850031E+01  0.50000000E+00  0.00000000E+00
  0.00000000E+00  0.29853659E+02  0.97611145E+01  0.50000000E+00  0.00000000E+00
  0.00000000E+00  0.29853659E+02  0.10737226E+02  0.50000000E+00  0.00000000E+00
  0.00000000E+00  0.29853659E+02  0.11713337E+02  0.50000000E+00  0.00000000E+00
  0.00000000E+00  0.29853659E+02  0.12689449E+02  0.50000000E+00  0.00000000E+00
  0.00000000E+00  0.29853659E+02  0.13665560E+02  0.50000000E+00  0.00000000E+00
  0.00000000E+00  0.29853659E+02  0.14641672E+02  0.50000000E+00  0.00000000E+00
  0.00000000E+00  0.29853659E+02  0.15617783E+02  0.50000000E+00  0.00000000E+00
  0.00000000E+00  0.29853659E+02  0.16593895E+02  0.50000000E+00  0.00000000E+00
  0.00000000E+00  0.29853659E+02  0.17570006E+02  0.50000000E+00  0.00000000E+00
  0.00000000E+00  0.29853659E+02  0.18546118E+02  0.50000000E+00  0.00000000E+00
  0.00000000E+00  0.29853659E+02  0.19522229E+02  0.50000000E+00  0.00000000E+00
  0.00000000E+00  0.29853659E+02  0.20498341E+02  0.49832109E+00  0.20172485E-10
  0.00000000E+00  0.32341463E+02  0.00000000E+00  0.50000000E+00  0.00000000E+00
  0.00000000E+00  0.32341463E+02  0.97610827E+00  0.50000000E+00  0.00000000E+00
  0.00000000E+00  0.32341463E+02  0.19522165E+01  0.50000000E+00  0.00000000E+00
  0.00000000E+00  0.32341463E+02  0.29283248E+01  0.50000000E+00  0.00000000E+00
  0.00000000E+00  0.32341463E+02  0.39044331E+01  0.50000000E+00  0.00000000E+00
  0.00000000E+00  0.32341463E+02  0.48805413E+01  0.50000000E+00  0.00000000E+00
  0.00000000E+00  0.32341463E+02  0.58566496E+01  0.50000000E+00  0.00000000E+00
  0.00000000E+00  0.32341463E+02  0.68327579E+01  0.50000000E+00  0.00000000E+00
  0.00000000E+00  0.32341463E+02  0.78088661E+01  0.50000000E+00  0.00000000E+00
  0.00000000E+00  0.32341463E+02  0.87849744E+01  0.50000000E+00  0.00000000E+00
  0.00000000E+00  0.32341463E+02  0.97610827E+01  0.50000000E+00  0.00000000E+00
  0.00000000E+00  0.32341463E+02  0.10737191E+02  0.50000000E+00  0.00000000E+00
  0.00000000E+00  0.32341463E+02  0.11713299E+02  0.50000000E+00  0.00000000E+00
  0.00000000E+00  0.32341463E+02  0.12689407E+02  0.50000000E+00  0.00000000E+00
  0.00000000E+00  0.32341463E+02  0.13665516E+02  0.50000000E+00  0.00000000E+00
  0.00000000E+00  0.32341463E+02  0.14641624E+02  0.50000000E+00  0.00000000E+00
  0.00000000E+00  0.32341463E+02  0.15617732E+02  0.50000000E+00  0.00000000E+00
  0.00000000E+00  0.32341463E+02  0.16593841E+02  0.50000000E+00  0.00000000E+00
  0.00000000E+00  0.32341463E+02  0.17569949E+02  0.50000000E+00  0.00000000E+00
  0.00000000E+00  0.32341463E+02  0.18546057E+02  0.50000000E+00  0.00000000E+00
  0.00000000E+00  0.32341463E+02  0.19522165E+02  0.50000000E+00  0.00000000E+00
  0.00000000E+00  0.32341463E+02  0.20498274E+02  0.49825413E+00  0.19057008E-10
  0.00000000E+00  0.34829268E+02  0.00000000E+00  0.50000000E+00  0.00000000E+00
  0.00000000E+00  0.34829268E+02  0.97609895E+00  0.50000000E+00  0.00000000E+00
  0.00000000E+00  0.34829268E+02  0.19521979E+01  0.50000000E+00  0.00000000E+00
  0.00000000E+00  0.34829268E+02  0.29282969E+01  0.50000000E+00  0.00000000E+00
  0.00000000E+00  0.34829268E+02  0.39043958E+01  0.50000000E+00  0.00000000E+00
  0.00000000E+00  0.34829268E+02  0.48804948E+01  0.50000000E+00  0.00000000E+00
  0.00000000E+00  0.34829268E+02  0.58565937E+01  0.50000000E+00  0.00000000E+00
  0.00000000E+00  0.34829268E+02  0.68326927E+01  0.50000000E+00  0.00000000E+00
  0.00000000E+00  0.34829268E+02  0.78087916E+01  0.50000000E+00  0.00000000E+00
  0.00000000E+00  0.34829268E+02  0.87848906E+01  0.50000000E+00  0.00000000E+00
  0.00000000E+00  0.34829268E+02  0.97609895E+01  0.50000000E+00  0.00000000E+00
  0.00000000E+00  0.34829268E+02  0.10737088E+02  0.50000000E+00  0.00000000E+00
  0.00000000E+00  0.34829268E+02  0.11713187E+02  0.50000000E+00  0.00000000E+00
  0.00000000E+00  0.34829268E+02  0.12689286E+02  0.50000000E+00  0.00000000E+00
  0.00000000E+00  0.34829268E+02  0.13665385E+02  0.50000000E+00  0.00000000E+00
  0.00000000E+00  0.34829268E+02  0.14641484E+02  0.50000000E+00  0.00000000E+00
  0.00000000E+00  0.34829268E+02  0.15617583E+02  0.50000000E+00  0.00000000E+00
  0.00000000E+00  0.34829268E+02  0.16593682E+02  0.50000000E+00  0.00000000E+00
  0.00000000E+00  0.34829268E+02  0.17569781E+02  0.50000000E+00  0.00000000E+00
  0.00000000E+00  0.34829268E+02  0.18545880E+02  0.50000000E+00  0.00000000E+00
  0.00000000E+00  0.34829268E+02  0.19521979E+02  0.50000000E+00  0.00000000E+00
  0.00000000E+00  0.34829268E+02  0.20498078E+02  0.49805704E+00  0.17050893E-10
  0.00000000E+00  0.37317073E+02  0.00000000E+00  0.50000000E+00  0.00000000E+00
  0.00000000E+00  0.37317073E+02  0.97609547E+00  0.50000000E+00  0.00000000E+00
  0.00000000E+00  0.37317073E+02  0.19521909E+01  0.50000000E+00  0.00000000E+00
  0.00000000E+00  0.37317073E+02  0.29282864E+01  0.50000000E+00  0.00000000E+00
  0.00000000E+00  0.37317073E+02  0.39043819E+01  0.50000000E+00  0.00000000E+00
  0.00000000E+00  0.37317073E+02  0.48804774E+01  0.50000000E+00  0.00000000E+00
  0.00000000E+00  0.37317073E+02  0.58565728E+01  0.50000000E+00  0.00000000E+00
  0.00000000E+00  0.37317073E+02  0.68326683E+01  0.50000000E+00  0.00000000E+00
  0.00000000E+00  0.37317073E+02  0.78087638E+01  0.50000000E+00  0.00000000E+00
  0.00000000E+00  0.37317073E+02  0.87848592E+01  0.50000000E+00  0.00000000E+00
  0.00000000E+00  0.37317073E+02  0.97609547E+01  0.50000000E+00  0.00000000E+00
  0.00000000E+00  0.37317073E+02  0.10737050E+02  0.50000000E+00  0.00000000E+00
  0.00000000E+00  0.37317073E+02  0.11713146E+02  0.50000000E+00  0.00000000E+00
  0.00000000E+00  0.37317073E+02  0.12689241E+02  0.50000000E+00  0.00000000E+00
  0.00000000E+00  0.37317073E+02  0.13665337E+02  0.50000000E+00  0.00000000E+00
  0.00000000E+00  0.37317073E+02  0.14641432E+02  0.50000000E+00  0.00000000E+00
  0.00000000E+00  0.37317073E+02  0.15617528E+02  0.50000000E+00  0.00000000E+00
  0.00000000E+00  0.37317073E+02  0.16593623E+02  0.50000000E+00  0.00000000E+00
  0.00000000E+00  0.37317073E+02  0.17569718E+02  0.50000000E+00  0.00000000E+00
  0.00000000E+00  0.37317073E+02  0.18545814E+02  0.50000000E+00  0.00000000E+00
  0.00000000E+00  0.37317073E+02  0.19521909E+02  0.50000000E+00  0.00000000E+00
  0.00000000E+00  0.37317073E+02  0.20498005E+02  0.49798366E+00  0.19897845E-10
  0.00000000E+00  0.39804878E+02  0.00000000E+00  0.50000000E+00  0.00000000E+00
  0.00000000E+00  0.39804878E+02  0.97609588E+00  0.50000000E+00  0.00000000E+00
  0.00000000E+00  0.39804878E+02  0.19521918E+01  0.50000000E+00  0.00000000E+00
  0.00000000E+00  0.39804878E+02  0.29282876E+01  0.50000000E+00  0.00000000E+00
  0.00000000E+00  0.39804878E+02  0.39043835E+01  0.50000000E+00  0.00000000E+00
  0.00000000E+00  0.39804878E+02  0.48804794E+01  0.50000000E+00  0.00000000E+00
  0.00000000E+00  0.39804878E+02  0.58565753E+01  0.50000000E+00  0.00000000E+00
  0.00000000E+00  0.39804878E+02  0.68326711E+01  0.50000000E+00  0.00000000E+00
  0.00000000E+00  0.39804878E+02  0.78087670E+01  0.50000000E+00  0.00000000E+00
  0.00000000E+00  0.39804878E+02  0.87848629E+01  0.50000000E+00  0.00000000E+00
  0.00000000E+00  0.39804878E+02  0.97609588E+01  0.50000000E+00  0.00000000E+00
  0.00000000E+00  0.39804878E+02  0.10737055E+02  0.50000000E+00  0.00000000E+00
  0.00000000E+00  0.39804878E+02  0.11713151E+02  0.50000000E+00  0.00000000E+00
  0.00000000E+00  0.39804878E+02  0.12689246E+02  0.50000000E+00  0.00000000E+00
  0.00000000E+00  0.39804878E+02  0.13665342E+02  0.50000000E+00  0.00000000E+00
  0.00000000E+00  0.39804878E+02  0.14641438E+02  0.50000000E+00  0.00000000E+00