title="2d K section "
variables="x","z","Kx","logKx","Kz","logKz","porosity"
zone i=    22, j=    42,T="Initial K at t=0"
   0.0000000E+00   0.0000000E+00   0.1604385E-03  -0.3794691E+01   0.1604385E-03  -0.3794691E+01   0.3000000E+00
   0.0000000E+00   0.9761905E+00   0.6279720E-04  -0.4202060E+01   0.6279720E-04  -0.4202060E+01   0.3000000E+00
   0.0000000E+00   0.1952381E+01   0.5340533E-04  -0.4272415E+01   0.5340533E-04  -0.4272415E+01   0.3000000E+00
   0.0000000E+00   0.2928571E+01   0.7800794E-04  -0.4107861E+01   0.7800794E-04  -0.4107861E+01   0.3000000E+00
   0.0000000E+00   0.3904762E+01   0.9940581E-04  -0.4002588E+01   0.9940581E-04  -0.4002588E+01   0.3000000E+00
   0.0000000E+00   0.4880952E+01   0.8743630E-04  -0.4058308E+01   0.8743630E-04  -0.4058308E+01   0.3000000E+00
   0.0000000E+00   0.5857143E+01   0.4294458E-04  -0.4367092E+01   0.4294458E-04  -0.4367092E+01   0.3000000E+00
   0.0000000E+00   0.6833333E+01   0.4066267E-04  -0.4390804E+01   0.4066267E-04  -0.4390804E+01   0.3000000E+00
   0.0000000E+00   0.7809524E+01   0.7196721E-04  -0.4142865E+01   0.7196721E-04  -0.4142865E+01   0.3000000E+00
   0.0000000E+00   0.8785714E+01   0.5951394E-04  -0.4225381E+01   0.5951394E-04  -0.4225381E+01   0.3000000E+00
   0.0000000E+00   0.9761905E+01   0.4591127E-04  -0.4338081E+01   0.4591127E-04  -0.4338081E+01   0.3000000E+00
   0.0000000E+00   0.1073810E+02   0.1510863E-07  -0.7820775E+01   0.1510863E-07  -0.7820775E+01   0.3000000E+00
   0.0000000E+00   0.1171429E+02   0.5699998E-08  -0.8244125E+01   0.5699998E-08  -0.8244125E+01   0.3000000E+00
   0.0000000E+00   0.1269048E+02   0.9266130E-08  -0.8033102E+01   0.9266130E-08  -0.8033102E+01   0.3000000E+00
   0.0000000E+00   0.1366667E+02   0.1755547E-07  -0.7755587E+01   0.1755547E-07  -0.7755587E+01   0.3000000E+00
   0.0000000E+00   0.1464286E+02   0.1854065E-07  -0.7731875E+01   0.1854065E-07  -0.7731875E+01   0.3000000E+00
   0.0000000E+00   0.1561905E+02   0.1202648E-04  -0.4919862E+01   0.1202648E-04  -0.4919862E+01   0.3000000E+00
   0.0000000E+00   0.1659524E+02   0.1156532E-04  -0.4936843E+01   0.1156532E-04  -0.4936843E+01   0.3000000E+00
   0.0000000E+00   0.1757143E+02   0.3148183E-04  -0.4501940E+01   0.3148183E-04  -0.4501940E+01   0.3000000E+00
   0.0000000E+00   0.1854762E+02   0.5037578E-04  -0.4297778E+01   0.5037578E-04  -0.4297778E+01   0.3000000E+00
   0.0000000E+00   0.1952381E+02   0.4475533E-04  -0.4349155E+01   0.4475533E-04  -0.4349155E+01   0.3000000E+00
   0.0000000E+00   0.2050000E+02   0.4475533E-04  -0.4349155E+01   0.4475533E-04  -0.4349155E+01   0.3000000E+00
   0.2487805E+01   0.0000000E+00   0.1118558E-03  -0.3951341E+01   0.1118558E-03  -0.3951341E+01   0.3000000E+00
   0.2487805E+01   0.9761905E+00   0.1260414E-03  -0.3899487E+01   0.1260414E-03  -0.3899487E+01   0.3000000E+00
   0.2487805E+01   0.1952381E+01   0.9668039E-04  -0.4014662E+01   0.9668039E-04  -0.4014662E+01   0.3000000E+00
   0.2487805E+01   0.2928571E+01   0.7412928E-04  -0.4130010E+01   0.7412928E-04  -0.4130010E+01   0.3000000E+00
   0.2487805E+01   0.3904762E+01   0.4338052E-04  -0.4362705E+01   0.4338052E-04  -0.4362705E+01   0.3000000E+00
   0.2487805E+01   0.4880952E+01   0.7962360E-04  -0.4098958E+01   0.7962360E-04  -0.4098958E+01   0.3000000E+00
   0.2487805E+01   0.5857143E+01   0.3688521E-04  -0.4433148E+01   0.3688521E-04  -0.4433148E+01   0.3000000E+00
   0.2487805E+01   0.6833333E+01   0.3978582E-04  -0.4400272E+01   0.3978582E-04  -0.4400272E+01   0.3000000E+00
   0.2487805E+01   0.7809524E+01   0.5141400E-04  -0.4288919E+01   0.5141400E-04  -0.4288919E+01   0.3000000E+00
   0.2487805E+01   0.8785714E+01   0.3429195E-04  -0.4464808E+01   0.3429195E-04  -0.4464808E+01   0.3000000E+00
   0.2487805E+01   0.9761905E+01   0.2387688E-04  -0.4622022E+01   0.2387688E-04  -0.4622022E+01   0.3000000E+00
   0.2487805E+01   0.1073810E+02   0.2706566E-07  -0.7567581E+01   0.2706566E-07  -0.7567581E+01   0.3000000E+00
   0.2487805E+01   0.1171429E+02   0.1653312E-07  -0.7781645E+01   0.1653312E-07  -0.7781645E+01   0.3000000E+00
   0.2487805E+01   0.1269048E+02   0.1484207E-07  -0.7828505E+01   0.1484207E-07  -0.7828505E+01   0.3000000E+00
   0.2487805E+01   0.1366667E+02   0.8226543E-08  -0.8084783E+01   0.8226543E-08  -0.8084783E+01   0.3000000E+00
   0.2487805E+01   0.1464286E+02   0.1531007E-04  -0.4815023E+01   0.1531007E-04  -0.4815023E+01   0.3000000E+00
   0.2487805E+01   0.1561905E+02   0.6233952E-05  -0.5205237E+01   0.6233952E-05  -0.5205237E+01   0.3000000E+00
   0.2487805E+01   0.1659524E+02   0.6190467E-05  -0.5208277E+01   0.6190467E-05  -0.5208277E+01   0.3000000E+00
   0.2487805E+01   0.1757143E+02   0.1131139E-04  -0.4946484E+01   0.1131139E-04  -0.4946484E+01   0.3000000E+00
   0.2487805E+01   0.1854762E+02   0.2625642E-04  -0.4580764E+01   0.2625642E-04  -0.4580764E+01   0.3000000E+00
   0.2487805E+01   0.1952381E+02   0.2384347E-04  -0.4622630E+01   0.2384347E-04  -0.4622630E+01   0.3000000E+00
   0.2487805E+01   0.2050000E+02   0.2384347E-04  -0.4622630E+01   0.2384347E-04  -0.4622630E+01   0.3000000E+00
   0.4975610E+01   0.0000000E+00   0.7290889E-04  -0.4137220E+01   0.7290889E-04  -0.4137220E+01   0.3000000E+00
   0.4975610E+01   0.9761905E+00   0.9055076E-04  -0.4043108E+01   0.9055076E-04  -0.4043108E+01   0.3000000E+00
   0.4975610E+01   0.1952381E+01   0.3563437E-04  -0.4448131E+01   0.3563437E-04  -0.4448131E+01   0.3000000E+00
   0.4975610E+01   0.2928571E+01   0.6078303E-04  -0.4216218E+01   0.6078303E-04  -0.4216218E+01   0.3000000E+00
   0.4975610E+01   0.3904762E+01   0.5425041E-04  -0.4265597E+01   0.5425041E-04  -0.4265597E+01   0.3000000E+00
   0.4975610E+01   0.4880952E+01   0.4542264E-04  -0.4342728E+01   0.4542264E-04  -0.4342728E+01   0.3000000E+00
   0.4975610E+01   0.5857143E+01   0.3155432E-04  -0.4500941E+01   0.3155432E-04  -0.4500941E+01   0.3000000E+00
   0.4975610E+01   0.6833333E+01   0.2798058E-04  -0.4553143E+01   0.2798058E-04  -0.4553143E+01   0.3000000E+00
   0.4975610E+01   0.7809524E+01   0.5279469E-04  -0.4277410E+01   0.5279469E-04  -0.4277410E+01   0.3000000E+00
   0.4975610E+01   0.8785714E+01   0.3507928E-04  -0.4454949E+01   0.3507928E-04  -0.4454949E+01   0.3000000E+00
   0.4975610E+01   0.9761905E+01   0.1617571E-04  -0.4791137E+01   0.1617571E-04  -0.4791137E+01   0.3000000E+00
   0.4975610E+01   0.1073810E+02   0.2893830E-07  -0.7538527E+01   0.2893830E-07  -0.7538527E+01   0.3000000E+00
   0.4975610E+01   0.1171429E+02   0.1395958E-07  -0.7855128E+01   0.1395958E-07  -0.7855128E+01   0.3000000E+00
   0.4975610E+01   0.1269048E+02   0.4563390E-08  -0.8340712E+01   0.4563390E-08  -0.8340712E+01   0.3000000E+00
   0.4975610E+01   0.1366667E+02   0.7538821E-08  -0.8122697E+01   0.7538821E-08  -0.8122697E+01   0.3000000E+00
   0.4975610E+01   0.1464286E+02   0.1208193E-04  -0.4917864E+01   0.1208193E-04  -0.4917864E+01   0.3000000E+00
   0.4975610E+01   0.1561905E+02   0.7646978E-05  -0.5116510E+01   0.7646978E-05  -0.5116510E+01   0.3000000E+00
   0.4975610E+01   0.1659524E+02   0.8611604E-05  -0.5064916E+01   0.8611604E-05  -0.5064916E+01   0.3000000E+00
   0.4975610E+01   0.1757143E+02   0.8048700E-05  -0.5094274E+01   0.8048700E-05  -0.5094274E+01   0.3000000E+00
   0.4975610E+01   0.1854762E+02   0.1683753E-04  -0.4773722E+01   0.1683753E-04  -0.4773722E+01   0.3000000E+00
   0.4975610E+01   0.1952381E+02   0.2611502E-04  -0.4583110E+01   0.2611502E-04  -0.4583110E+01   0.3000000E+00
   0.4975610E+01   0.2050000E+02   0.2611502E-04  -0.4583110E+01   0.2611502E-04  -0.4583110E+01   0.3000000E+00
   0.7463415E+01   0.0000000E+00   0.2152490E-04  -0.4667059E+01   0.2152490E-04  -0.4667059E+01   0.3000000E+00
   0.7463415E+01   0.9761905E+00   0.2832120E-04  -0.4547888E+01   0.2832120E-04  -0.4547888E+01   0.3000000E+00
   0.7463415E+01   0.1952381E+01   0.2262625E-04  -0.4645387E+01   0.2262625E-04  -0.4645387E+01   0.3000000E+00
   0.7463415E+01   0.2928571E+01   0.1890470E-04  -0.4723430E+01   0.1890470E-04  -0.4723430E+01   0.3000000E+00
   0.7463415E+01   0.3904762E+01   0.1609825E-04  -0.4793221E+01   0.1609825E-04  -0.4793221E+01   0.3000000E+00
   0.7463415E+01   0.4880952E+01   0.1685607E-04  -0.4773244E+01   0.1685607E-04  -0.4773244E+01   0.3000000E+00
   0.7463415E+01   0.5857143E+01   0.2180001E-04  -0.4661543E+01   0.2180001E-04  -0.4661543E+01   0.3000000E+00
   0.7463415E+01   0.6833333E+01   0.2556209E-04  -0.4592404E+01   0.2556209E-04  -0.4592404E+01   0.3000000E+00
   0.7463415E+01   0.7809524E+01   0.4238992E-04  -0.4372737E+01   0.4238992E-04  -0.4372737E+01   0.3000000E+00
   0.7463415E+01   0.8785714E+01   0.3238225E-04  -0.4489693E+01   0.3238225E-04  -0.4489693E+01   0.3000000E+00
   0.7463415E+01   0.9761905E+01   0.2434218E-04  -0.4613641E+01   0.2434218E-04  -0.4613641E+01   0.3000000E+00
   0.7463415E+01   0.1073810E+02   0.6652420E-07  -0.7177020E+01   0.6652420E-07  -0.7177020E+01   0.3000000E+00
   0.7463415E+01   0.1171429E+02   0.1387191E-07  -0.7857864E+01   0.1387191E-07  -0.7857864E+01   0.3000000E+00
   0.7463415E+01   0.1269048E+02   0.4742032E-08  -0.8324035E+01   0.4742032E-08  -0.8324035E+01   0.3000000E+00
   0.7463415E+01   0.1366667E+02   0.2596504E-08  -0.8585611E+01   0.2596504E-08  -0.8585611E+01   0.3000000E+00
   0.7463415E+01   0.1464286E+02   0.7325127E-05  -0.5135185E+01   0.7325127E-05  -0.5135185E+01   0.3000000E+00
   0.7463415E+01   0.1561905E+02   0.8839325E-05  -0.5053581E+01   0.8839325E-05  -0.5053581E+01   0.3000000E+00
   0.7463415E+01   0.1659524E+02   0.1104868E-04  -0.4956690E+01   0.1104868E-04  -0.4956690E+01   0.3000000E+00
   0.7463415E+01   0.1757143E+02   0.1863442E-04  -0.4729684E+01   0.1863442E-04  -0.4729684E+01   0.3000000E+00
   0.7463415E+01   0.1854762E+02   0.2397497E-04  -0.4620242E+01   0.2397497E-04  -0.4620242E+01   0.3000000E+00
   0.7463415E+01   0.1952381E+02   0.1517441E-04  -0.4818888E+01   0.1517441E-04  -0.4818888E+01   0.3000000E+00
   0.7463415E+01   0.2050000E+02   0.1517441E-04  -0.4818888E+01   0.1517441E-04  -0.4818888E+01   0.3000000E+00
   0.9951220E+01   0.0000000E+00   0.1234326E-04  -0.4908570E+01   0.1234326E-04  -0.4908570E+01   0.3000000E+00
   0.9951220E+01   0.9761905E+00   0.1235314E-04  -0.4908223E+01   0.1235314E-04  -0.4908223E+01   0.3000000E+00
   0.9951220E+01   0.1952381E+01   0.8811085E-05  -0.5054971E+01   0.8811085E-05  -0.5054971E+01   0.3000000E+00
   0.9951220E+01   0.2928571E+01   0.5870328E-05  -0.5231338E+01   0.5870328E-05  -0.5231338E+01   0.3000000E+00
   0.9951220E+01   0.3904762E+01   0.5134644E-05  -0.5289490E+01   0.5134644E-05  -0.5289490E+01   0.3000000E+00
   0.9951220E+01   0.4880952E+01   0.9482145E-05  -0.5023093E+01   0.9482145E-05  -0.5023093E+01   0.3000000E+00
   0.9951220E+01   0.5857143E+01   0.9484990E-05  -0.5022963E+01   0.9484990E-05  -0.5022963E+01   0.3000000E+00
   0.9951220E+01   0.6833333E+01   0.1201566E-04  -0.4920252E+01   0.1201566E-04  -0.4920252E+01   0.3000000E+00
   0.9951220E+01   0.7809524E+01   0.3293416E-04  -0.4482353E+01   0.3293416E-04  -0.4482353E+01   0.3000000E+00
   0.9951220E+01   0.8785714E+01   0.2833820E-04  -0.4547628E+01   0.2833820E-04  -0.4547628E+01   0.3000000E+00
   0.9951220E+01   0.9761905E+01   0.2819968E-04  -0.4549756E+01   0.2819968E-04  -0.4549756E+01   0.3000000E+00
   0.9951220E+01   0.1073810E+02   0.3111114E-07  -0.7507084E+01   0.3111114E-07  -0.7507084E+01   0.3000000E+00
   0.9951220E+01   0.1171429E+02   0.2143373E-07  -0.7668902E+01   0.2143373E-07  -0.7668902E+01   0.3000000E+00
   0.9951220E+01   0.1269048E+02   0.3600835E-08  -0.8443597E+01   0.3600835E-08  -0.8443597E+01   0.3000000E+00
   0.9951220E+01   0.1366667E+02   0.2159261E-08  -0.8665695E+01   0.2159261E-08  -0.8665695E+01   0.3000000E+00
   0.9951220E+01   0.1464286E+02   0.2199490E-04  -0.4657678E+01   0.2199490E-04  -0.4657678E+01   0.3000000E+00
   0.9951220E+01   0.1561905E+02   0.1171665E-04  -0.4931197E+01   0.1171665E-04  -0.4931197E+01   0.3000000E+00
   0.9951220E+01   0.1659524E+02   0.2266021E-04  -0.4644736E+01   0.2266021E-04  -0.4644736E+01   0.3000000E+00
   0.9951220E+01   0.1757143E+02   0.3071068E-04  -0.4512711E+01   0.3071068E-04  -0.4512711E+01   0.3000000E+00
   0.9951220E+01   0.1854762E+02   0.2924506E-04  -0.4533948E+01   0.2924506E-04  -0.4533948E+01   0.3000000E+00
   0.9951220E+01   0.1952381E+02   0.1603880E-04  -0.4794828E+01   0.1603880E-04  -0.4794828E+01   0.3000000E+00
   0.9951220E+01   0.2050000E+02   0.1603880E-04  -0.4794828E+01   0.1603880E-04  -0.4794828E+01   0.3000000E+00
   0.1243902E+02   0.0000000E+00   0.1747743E-04  -0.4757522E+01   0.1747743E-04  -0.4757522E+01   0.3000000E+00
   0.1243902E+02   0.9761905E+00   0.1004938E-04  -0.4997861E+01   0.1004938E-04  -0.4997861E+01   0.3000000E+00
   0.1243902E+02   0.1952381E+01   0.3718835E-05  -0.5429593E+01   0.3718835E-05  -0.5429593E+01   0.3000000E+00
   0.1243902E+02   0.2928571E+01   0.4496101E-05  -0.5347164E+01   0.4496101E-05  -0.5347164E+01   0.3000000E+00
   0.1243902E+02   0.3904762E+01   0.3662370E-05  -0.5436238E+01   0.3662370E-05  -0.5436238E+01   0.3000000E+00
   0.1243902E+02   0.4880952E+01   0.9038657E-05  -0.5043896E+01   0.9038657E-05  -0.5043896E+01   0.3000000E+00
   0.1243902E+02   0.5857143E+01   0.1322899E-04  -0.4878473E+01   0.1322899E-04  -0.4878473E+01   0.3000000E+00
   0.1243902E+02   0.6833333E+01   0.1954873E-04  -0.4708881E+01   0.1954873E-04  -0.4708881E+01   0.3000000E+00
   0.1243902E+02   0.7809524E+01   0.2129581E-04  -0.4671706E+01   0.2129581E-04  -0.4671706E+01   0.3000000E+00
   0.1243902E+02   0.8785714E+01   0.6185609E-04  -0.4208618E+01   0.6185609E-04  -0.4208618E+01   0.3000000E+00
   0.1243902E+02   0.9761905E+01   0.4956131E-04  -0.4304857E+01   0.4956131E-04  -0.4304857E+01   0.3000000E+00
   0.1243902E+02   0.1073810E+02   0.9925089E-08  -0.8003266E+01   0.9925089E-08  -0.8003266E+01   0.3000000E+00
   0.1243902E+02   0.1171429E+02   0.4986159E-08  -0.8302234E+01   0.4986159E-08  -0.8302234E+01   0.3000000E+00
   0.1243902E+02   0.1269048E+02   0.1360110E-08  -0.8866426E+01   0.1360110E-08  -0.8866426E+01   0.3000000E+00
   0.1243902E+02   0.1366667E+02   0.3493017E-08  -0.8456799E+01   0.3493017E-08  -0.8456799E+01   0.3000000E+00
   0.1243902E+02   0.1464286E+02   0.3468511E-04  -0.4459857E+01   0.3468511E-04  -0.4459857E+01   0.3000000E+00
   0.1243902E+02   0.1561905E+02   0.2545496E-04  -0.4594228E+01   0.2545496E-04  -0.4594228E+01   0.3000000E+00
   0.1243902E+02   0.1659524E+02   0.1287659E-04  -0.4890199E+01   0.1287659E-04  -0.4890199E+01   0.3000000E+00
   0.1243902E+02   0.1757143E+02   0.1804756E-04  -0.4743581E+01   0.1804756E-04  -0.4743581E+01   0.3000000E+00
   0.1243902E+02   0.1854762E+02   0.2771048E-04  -0.4557356E+01   0.2771048E-04  -0.4557356E+01   0.3000000E+00
   0.1243902E+02   0.1952381E+02   0.2152060E-04  -0.4667146E+01   0.2152060E-04  -0.4667146E+01   0.3000000E+00
   0.1243902E+02   0.2050000E+02   0.2152060E-04  -0.4667146E+01   0.2152060E-04  -0.4667146E+01   0.3000000E+00
   0.1492683E+02   0.0000000E+00   0.3370717E-04  -0.4472278E+01   0.3370717E-04  -0.4472278E+01   0.3000000E+00
   0.1492683E+02   0.9761905E+00   0.8495279E-05  -0.5070822E+01   0.8495279E-05  -0.5070822E+01   0.3000000E+00
   0.1492683E+02   0.1952381E+01   0.7134988E-05  -0.5146607E+01   0.7134988E-05  -0.5146607E+01   0.3000000E+00
   0.1492683E+02   0.2928571E+01   0.1168155E-04  -0.4932500E+01   0.1168155E-04  -0.4932500E+01   0.3000000E+00
   0.1492683E+02   0.3904762E+01   0.6518932E-05  -0.5185824E+01   0.6518932E-05  -0.5185824E+01   0.3000000E+00
   0.1492683E+02   0.4880952E+01   0.1006849E-04  -0.4997036E+01   0.1006849E-04  -0.4997036E+01   0.3000000E+00
   0.1492683E+02   0.5857143E+01   0.1626655E-04  -0.4788705E+01   0.1626655E-04  -0.4788705E+01   0.3000000E+00
   0.1492683E+02   0.6833333E+01   0.1892361E-04  -0.4722996E+01   0.1892361E-04  -0.4722996E+01   0.3000000E+00
   0.1492683E+02   0.7809524E+01   0.1898047E-04  -0.4721693E+01   0.1898047E-04  -0.4721693E+01   0.3000000E+00
   0.1492683E+02   0.8785714E+01   0.3832148E-04  -0.4416558E+01   0.3832148E-04  -0.4416558E+01   0.3000000E+00
   0.1492683E+02   0.9761905E+01   0.5558484E-04  -0.4255044E+01   0.5558484E-04  -0.4255044E+01   0.3000000E+00
   0.1492683E+02   0.1073810E+02   0.5485816E-08  -0.8260759E+01   0.5485816E-08  -0.8260759E+01   0.3000000E+00
   0.1492683E+02   0.1171429E+02   0.6234921E-08  -0.8205169E+01   0.6234921E-08  -0.8205169E+01   0.3000000E+00
   0.1492683E+02   0.1269048E+02   0.5149326E-08  -0.8288250E+01   0.5149326E-08  -0.8288250E+01   0.3000000E+00
   0.1492683E+02   0.1366667E+02   0.8184694E-08  -0.8086998E+01   0.8184694E-08  -0.8086998E+01   0.3000000E+00
   0.1492683E+02   0.1464286E+02   0.4100568E-04  -0.4387156E+01   0.4100568E-04  -0.4387156E+01   0.3000000E+00
   0.1492683E+02   0.1561905E+02   0.2470265E-04  -0.4607256E+01   0.2470265E-04  -0.4607256E+01   0.3000000E+00
   0.1492683E+02   0.1659524E+02   0.1282903E-04  -0.4891806E+01   0.1282903E-04  -0.4891806E+01   0.3000000E+00
   0.1492683E+02   0.1757143E+02   0.2452543E-04  -0.4610383E+01   0.2452543E-04  -0.4610383E+01   0.3000000E+00
   0.1492683E+02   0.1854762E+02   0.1690502E-04  -0.4771984E+01   0.1690502E-04  -0.4771984E+01   0.3000000E+00
   0.1492683E+02   0.1952381E+02   0.1260395E-04  -0.4899493E+01   0.1260395E-04  -0.4899493E+01   0.3000000E+00
   0.1492683E+02   0.2050000E+02   0.1260395E-04  -0.4899493E+01   0.1260395E-04  -0.4899493E+01   0.3000000E+00
   0.1741463E+02   0.0000000E+00   0.2791629E-04  -0.4554142E+01   0.2791629E-04  -0.4554142E+01   0.3000000E+00
   0.1741463E+02   0.9761905E+00   0.2613592E-04  -0.4582762E+01   0.2613592E-04  -0.4582762E+01   0.3000000E+00
   0.1741463E+02   0.1952381E+01   0.2104390E-04  -0.4676874E+01   0.2104390E-04  -0.4676874E+01   0.3000000E+00
   0.1741463E+02   0.2928571E+01   0.8414114E-05  -0.5074992E+01   0.8414114E-05  -0.5074992E+01   0.3000000E+00
   0.1741463E+02   0.3904762E+01   0.7570132E-05  -0.5120897E+01   0.7570132E-05  -0.5120897E+01   0.3000000E+00
   0.1741463E+02   0.4880952E+01   0.1072428E-04  -0.4969632E+01   0.1072428E-04  -0.4969632E+01   0.3000000E+00
   0.1741463E+02   0.5857143E+01   0.1284957E-04  -0.4891111E+01   0.1284957E-04  -0.4891111E+01   0.3000000E+00
   0.1741463E+02   0.6833333E+01   0.2089501E-04  -0.4679957E+01   0.2089501E-04  -0.4679957E+01   0.3000000E+00
   0.1741463E+02   0.7809524E+01   0.2667190E-04  -0.4573946E+01   0.2667190E-04  -0.4573946E+01   0.3000000E+00
   0.1741463E+02   0.8785714E+01   0.1749492E-04  -0.4757088E+01   0.1749492E-04  -0.4757088E+01   0.3000000E+00
   0.1741463E+02   0.9761905E+01   0.2606805E-04  -0.4583891E+01   0.2606805E-04  -0.4583891E+01   0.3000000E+00
   0.1741463E+02   0.1073810E+02   0.7886606E-08  -0.8103110E+01   0.7886606E-08  -0.8103110E+01   0.3000000E+00
   0.1741463E+02   0.1171429E+02   0.1135736E-07  -0.7944723E+01   0.1135736E-07  -0.7944723E+01   0.3000000E+00
   0.1741463E+02   0.1269048E+02   0.4100795E-07  -0.7387132E+01   0.4100795E-07  -0.7387132E+01   0.3000000E+00
   0.1741463E+02   0.1366667E+02   0.2120773E-07  -0.7673506E+01   0.2120773E-07  -0.7673506E+01   0.3000000E+00
   0.1741463E+02   0.1464286E+02   0.3851357E-04  -0.4414386E+01   0.3851357E-04  -0.4414386E+01   0.3000000E+00
   0.1741463E+02   0.1561905E+02   0.2460650E-04  -0.4608950E+01   0.2460650E-04  -0.4608950E+01   0.3000000E+00
   0.1741463E+02   0.1659524E+02   0.1378816E-04  -0.4860494E+01   0.1378816E-04  -0.4860494E+01   0.3000000E+00
   0.1741463E+02   0.1757143E+02   0.3042944E-04  -0.4516706E+01   0.3042944E-04  -0.4516706E+01   0.3000000E+00
   0.1741463E+02   0.1854762E+02   0.3310918E-04  -0.4480052E+01   0.3310918E-04  -0.4480052E+01   0.3000000E+00
   0.1741463E+02   0.1952381E+02   0.1437960E-04  -0.4842253E+01   0.1437960E-04  -0.4842253E+01   0.3000000E+00
   0.1741463E+02   0.2050000E+02   0.1437960E-04  -0.4842253E+01   0.1437960E-04  -0.4842253E+01   0.3000000E+00
   0.1990244E+02   0.0000000E+00   0.5315491E-04  -0.4274457E+01   0.5315491E-04  -0.4274457E+01   0.3000000E+00
   0.1990244E+02   0.9761905E+00   0.5545714E-04  -0.4256042E+01   0.5545714E-04  -0.4256042E+01   0.3000000E+00
   0.1990244E+02   0.1952381E+01   0.1073716E-04  -0.4969111E+01   0.1073716E-04  -0.4969111E+01   0.3000000E+00
   0.1990244E+02   0.2928571E+01   0.9414119E-05  -0.5026220E+01   0.9414119E-05  -0.5026220E+01   0.3000000E+00
   0.1990244E+02   0.3904762E+01   0.3473319E-05  -0.5459255E+01   0.3473319E-05  -0.5459255E+01   0.3000000E+00
   0.1990244E+02   0.4880952E+01   0.7750912E-05  -0.5110647E+01   0.7750912E-05  -0.5110647E+01   0.3000000E+00
   0.1990244E+02   0.5857143E+01   0.1895771E-04  -0.4722214E+01   0.1895771E-04  -0.4722214E+01   0.3000000E+00
   0.1990244E+02   0.6833333E+01   0.2309718E-04  -0.4636441E+01   0.2309718E-04  -0.4636441E+01   0.3000000E+00
   0.1990244E+02   0.7809524E+01   0.2971674E-04  -0.4526999E+01   0.2971674E-04  -0.4526999E+01   0.3000000E+00
   0.1990244E+02   0.8785714E+01   0.2696691E-04  -0.4569169E+01   0.2696691E-04  -0.4569169E+01   0.3000000E+00
   0.1990244E+02   0.9761905E+01   0.1910424E-04  -0.4718870E+01   0.1910424E-04  -0.4718870E+01   0.3000000E+00
   0.1990244E+02   0.1073810E+02   0.2260488E-07  -0.7645798E+01   0.2260488E-07  -0.7645798E+01   0.3000000E+00
   0.1990244E+02   0.1171429E+02   0.1568439E-07  -0.7804532E+01   0.1568439E-07  -0.7804532E+01   0.3000000E+00
   0.1990244E+02   0.1269048E+02   0.3506368E-07  -0.7455143E+01   0.3506368E-07  -0.7455143E+01   0.3000000E+00
   0.1990244E+02   0.1366667E+02   0.3831210E-07  -0.7416664E+01   0.3831210E-07  -0.7416664E+01   0.3000000E+00
   0.1990244E+02   0.1464286E+02   0.3619824E-04  -0.4441313E+01   0.3619824E-04  -0.4441313E+01   0.3000000E+00
   0.1990244E+02   0.1561905E+02   0.3409022E-04  -0.4467370E+01   0.3409022E-04  -0.4467370E+01   0.3000000E+00
   0.1990244E+02   0.1659524E+02   0.3282238E-04  -0.4483830E+01   0.3282238E-04  -0.4483830E+01   0.3000000E+00
   0.1990244E+02   0.1757143E+02   0.3180777E-04  -0.4497467E+01   0.3180777E-04  -0.4497467E+01   0.3000000E+00
   0.1990244E+02   0.1854762E+02   0.3381521E-04  -0.4470888E+01   0.3381521E-04  -0.4470888E+01   0.3000000E+00
   0.1990244E+02   0.1952381E+02   0.4029432E-04  -0.4394756E+01   0.4029432E-04  -0.4394756E+01   0.3000000E+00
   0.1990244E+02   0.2050000E+02   0.4029432E-04  -0.4394756E+01   0.4029432E-04  -0.4394756E+01   0.3000000E+00
   0.2239024E+02   0.0000000E+00   0.1194993E-03  -0.3922635E+01   0.1194993E-03  -0.3922635E+01   0.3000000E+00
   0.2239024E+02   0.9761905E+00   0.5351225E-04  -0.4271547E+01   0.5351225E-04  -0.4271547E+01   0.3000000E+00
   0.2239024E+02   0.1952381E+01   0.1538681E-04  -0.4812851E+01   0.1538681E-04  -0.4812851E+01   0.3000000E+00
   0.2239024E+02   0.2928571E+01   0.5746613E-05  -0.5240588E+01   0.5746613E-05  -0.5240588E+01   0.3000000E+00
   0.2239024E+02   0.3904762E+01   0.2555660E-05  -0.5592497E+01   0.2555660E-05  -0.5592497E+01   0.3000000E+00
   0.2239024E+02   0.4880952E+01   0.1793243E-04  -0.4746361E+01   0.1793243E-04  -0.4746361E+01   0.3000000E+00
   0.2239024E+02   0.5857143E+01   0.2312723E-04  -0.4635876E+01   0.2312723E-04  -0.4635876E+01   0.3000000E+00
   0.2239024E+02   0.6833333E+01   0.2113035E-04  -0.4675093E+01   0.2113035E-04  -0.4675093E+01   0.3000000E+00
   0.2239024E+02   0.7809524E+01   0.3184596E-04  -0.4496946E+01   0.3184596E-04  -0.4496946E+01   0.3000000E+00
   0.2239024E+02   0.8785714E+01   0.2541680E-04  -0.4594879E+01   0.2541680E-04  -0.4594879E+01   0.3000000E+00
   0.2239024E+02   0.9761905E+01   0.2725701E-04  -0.4564522E+01   0.2725701E-04  -0.4564522E+01   0.3000000E+00
   0.2239024E+02   0.1073810E+02   0.6479742E-07  -0.7188442E+01   0.6479742E-07  -0.7188442E+01   0.3000000E+00
   0.2239024E+02   0.1171429E+02   0.1895307E-07  -0.7722320E+01   0.1895307E-07  -0.7722320E+01   0.3000000E+00
   0.2239024E+02   0.1269048E+02   0.9779280E-08  -0.8009693E+01   0.9779280E-08  -0.8009693E+01   0.3000000E+00
   0.2239024E+02   0.1366667E+02   0.1854251E-07  -0.7731832E+01   0.1854251E-07  -0.7731832E+01   0.3000000E+00
   0.2239024E+02   0.1464286E+02   0.2255396E-04  -0.4646777E+01   0.2255396E-04  -0.4646777E+01   0.3000000E+00
   0.2239024E+02   0.1561905E+02   0.2030791E-04  -0.4692335E+01   0.2030791E-04  -0.4692335E+01   0.3000000E+00
   0.2239024E+02   0.1659524E+02   0.2703982E-04  -0.4567996E+01   0.2703982E-04  -0.4567996E+01   0.3000000E+00
   0.2239024E+02   0.1757143E+02   0.2185677E-04  -0.4660414E+01   0.2185677E-04  -0.4660414E+01   0.3000000E+00
   0.2239024E+02   0.1854762E+02   0.2687807E-04  -0.4570602E+01   0.2687807E-04  -0.4570602E+01   0.3000000E+00
   0.2239024E+02   0.1952381E+02   0.4731894E-04  -0.4324965E+01   0.4731894E-04  -0.4324965E+01   0.3000000E+00
   0.2239024E+02   0.2050000E+02   0.4731894E-04  -0.4324965E+01   0.4731894E-04  -0.4324965E+01   0.3000000E+00
   0.2487805E+02   0.0000000E+00   0.9635223E-04  -0.4016138E+01   0.9635223E-04  -0.4016138E+01   0.3000000E+00
   0.2487805E+02   0.9761905E+00   0.2121717E-04  -0.4673313E+01   0.2121717E-04  -0.4673313E+01   0.3000000E+00
   0.2487805E+02   0.1952381E+01   0.5146982E-05  -0.5288447E+01   0.5146982E-05  -0.5288447E+01   0.3000000E+00
   0.2487805E+02   0.2928571E+01   0.2303226E-05  -0.5637664E+01   0.2303226E-05  -0.5637664E+01   0.3000000E+00
   0.2487805E+02   0.3904762E+01   0.2037881E-05  -0.5690821E+01   0.2037881E-05  -0.5690821E+01   0.3000000E+00
   0.2487805E+02   0.4880952E+01   0.1194975E-04  -0.4922641E+01   0.1194975E-04  -0.4922641E+01   0.3000000E+00
   0.2487805E+02   0.5857143E+01   0.1699995E-04  -0.4769552E+01   0.1699995E-04  -0.4769552E+01   0.3000000E+00
   0.2487805E+02   0.6833333E+01   0.2189395E-04  -0.4659676E+01   0.2189395E-04  -0.4659676E+01   0.3000000E+00
   0.2487805E+02   0.7809524E+01   0.6413630E-04  -0.4192896E+01   0.6413630E-04  -0.4192896E+01   0.3000000E+00
   0.2487805E+02   0.8785714E+01   0.4147167E-04  -0.4382248E+01   0.4147167E-04  -0.4382248E+01   0.3000000E+00
   0.2487805E+02   0.9761905E+01   0.4231369E-04  -0.4373519E+01   0.4231369E-04  -0.4373519E+01   0.3000000E+00
   0.2487805E+02   0.1073810E+02   0.6404371E-07  -0.7193524E+01   0.6404371E-07  -0.7193524E+01   0.3000000E+00
   0.2487805E+02   0.1171429E+02   0.7425098E-08  -0.8129298E+01   0.7425098E-08  -0.8129298E+01   0.3000000E+00
   0.2487805E+02   0.1269048E+02   0.8703853E-08  -0.8060288E+01   0.8703853E-08  -0.8060288E+01   0.3000000E+00
   0.2487805E+02   0.1366667E+02   0.9155601E-08  -0.8038313E+01   0.9155601E-08  -0.8038313E+01   0.3000000E+00
   0.2487805E+02   0.1464286E+02   0.1826178E-04  -0.4738457E+01   0.1826178E-04  -0.4738457E+01   0.3000000E+00
   0.2487805E+02   0.1561905E+02   0.1776820E-04  -0.4750356E+01   0.1776820E-04  -0.4750356E+01   0.3000000E+00
   0.2487805E+02   0.1659524E+02   0.2388404E-04  -0.4621892E+01   0.2388404E-04  -0.4621892E+01   0.3000000E+00
   0.2487805E+02   0.1757143E+02   0.2920414E-04  -0.4534556E+01   0.2920414E-04  -0.4534556E+01   0.3000000E+00
   0.2487805E+02   0.1854762E+02   0.3437778E-04  -0.4463722E+01   0.3437778E-04  -0.4463722E+01   0.3000000E+00
   0.2487805E+02   0.1952381E+02   0.4080932E-04  -0.4389241E+01   0.4080932E-04  -0.4389241E+01   0.3000000E+00
   0.2487805E+02   0.2050000E+02   0.4080932E-04  -0.4389241E+01   0.4080932E-04  -0.4389241E+01   0.3000000E+00
   0.2736585E+02   0.0000000E+00   0.1142525E-03  -0.3942134E+01   0.1142525E-03  -0.3942134E+01   0.3000000E+00
   0.2736585E+02   0.9761905E+00   0.2155290E-04  -0.4666494E+01   0.2155290E-04  -0.4666494E+01   0.3000000E+00
   0.2736585E+02   0.1952381E+01   0.4537202E-05  -0.5343212E+01   0.4537202E-05  -0.5343212E+01   0.3000000E+00
   0.2736585E+02   0.2928571E+01   0.3317829E-05  -0.5479146E+01   0.3317829E-05  -0.5479146E+01   0.3000000E+00
   0.2736585E+02   0.3904762E+01   0.2011962E-05  -0.5696380E+01   0.2011962E-05  -0.5696380E+01   0.3000000E+00
   0.2736585E+02   0.4880952E+01   0.1892740E-04  -0.4722909E+01   0.1892740E-04  -0.4722909E+01   0.3000000E+00
   0.2736585E+02   0.5857143E+01   0.3704045E-04  -0.4431324E+01   0.3704045E-04  -0.4431324E+01   0.3000000E+00
   0.2736585E+02   0.6833333E+01   0.4655855E-04  -0.4332001E+01   0.4655855E-04  -0.4332001E+01   0.3000000E+00
   0.2736585E+02   0.7809524E+01   0.4850227E-04  -0.4314238E+01   0.4850227E-04  -0.4314238E+01   0.3000000E+00
   0.2736585E+02   0.8785714E+01   0.1997958E-04  -0.4699414E+01   0.1997958E-04  -0.4699414E+01   0.3000000E+00
   0.2736585E+02   0.9761905E+01   0.2566711E-04  -0.4590623E+01   0.2566711E-04  -0.4590623E+01   0.3000000E+00
   0.2736585E+02   0.1073810E+02   0.1927610E-07  -0.7714981E+01   0.1927610E-07  -0.7714981E+01   0.3000000E+00
   0.2736585E+02   0.1171429E+02   0.7742045E-08  -0.8111144E+01   0.7742045E-08  -0.8111144E+01   0.3000000E+00
   0.2736585E+02   0.1269048E+02   0.1199951E-07  -0.7920836E+01   0.1199951E-07  -0.7920836E+01   0.3000000E+00
   0.2736585E+02   0.1366667E+02   0.1596767E-07  -0.7796759E+01   0.1596767E-07  -0.7796759E+01   0.3000000E+00
   0.2736585E+02   0.1464286E+02   0.1645963E-04  -0.4783580E+01   0.1645963E-04  -0.4783580E+01   0.3000000E+00
   0.2736585E+02   0.1561905E+02   0.1707492E-04  -0.4767641E+01   0.1707492E-04  -0.4767641E+01   0.3000000E+00
   0.2736585E+02   0.1659524E+02   0.2913122E-04  -0.4535641E+01   0.2913122E-04  -0.4535641E+01   0.3000000E+00
   0.2736585E+02   0.1757143E+02   0.3093569E-04  -0.4509540E+01   0.3093569E-04  -0.4509540E+01   0.3000000E+00
   0.2736585E+02   0.1854762E+02   0.4084607E-04  -0.4388850E+01   0.4084607E-04  -0.4388850E+01   0.3000000E+00
   0.2736585E+02   0.1952381E+02   0.6046777E-04  -0.4218476E+01   0.6046777E-04  -0.4218476E+01   0.3000000E+00
   0.2736585E+02   0.2050000E+02   0.6046777E-04  -0.4218476E+01   0.6046777E-04  -0.4218476E+01   0.3000000E+00