title="2d vectors xz, t=    0.150E+03"
variables="x","z","vx","vz"
zone i=    21, j=    41, T="   0.150E+03"
  0.124390E+01  0.488076E+00  0.461890E-06  0.288198E-07
  0.124390E+01  0.146423E+01  0.192559E-06  0.187205E-07
  0.124390E+01  0.244038E+01  0.168014E-06 -0.507873E-08
  0.124390E+01  0.341653E+01  0.234216E-06 -0.211229E-07
  0.124390E+01  0.439269E+01  0.287080E-06 -0.209374E-08
  0.124390E+01  0.536884E+01  0.256754E-06  0.126521E-07
  0.124390E+01  0.634499E+01  0.133780E-06  0.133463E-07
  0.124390E+01  0.732115E+01  0.134197E-06  0.654502E-08
  0.124390E+01  0.829730E+01  0.241590E-06 -0.118626E-08
  0.124390E+01  0.927345E+01  0.198878E-06 -0.133118E-08
  0.124390E+01  0.102496E+02  0.153388E-06  0.941133E-09
  0.124390E+01  0.112258E+02  0.629714E-10  0.315345E-10
  0.124390E+01  0.122019E+02  0.330995E-10  0.119146E-10
  0.124390E+01  0.131781E+02  0.653104E-10  0.994857E-11
  0.124390E+01  0.141542E+02  0.147356E-09  0.413529E-10
  0.124390E+01  0.151304E+02  0.161562E-09 -0.285414E-10
  0.124390E+01  0.161065E+02  0.880933E-07 -0.240629E-07
  0.124390E+01  0.170827E+02  0.697126E-07 -0.150982E-07
  0.124390E+01  0.180588E+02  0.171680E-06 -0.499411E-08
  0.124390E+01  0.190350E+02  0.272133E-06  0.141358E-08
  0.124390E+01  0.200111E+02  0.209273E-06  0.365168E-07
  0.373171E+01  0.488014E+00  0.283503E-06  0.173727E-07
  0.373171E+01  0.146404E+01  0.291897E-06  0.306241E-07
  0.373171E+01  0.244007E+01  0.225769E-06  0.205370E-07
  0.373171E+01  0.341610E+01  0.208998E-06  0.214949E-07
  0.373171E+01  0.439212E+01  0.143873E-06  0.170784E-07
  0.373171E+01  0.536815E+01  0.284429E-06  0.402356E-07
  0.373171E+01  0.634418E+01  0.144381E-06  0.471470E-07
  0.373171E+01  0.732021E+01  0.177305E-06  0.416807E-07
  0.373171E+01  0.829624E+01  0.252801E-06  0.213536E-07
  0.373171E+01  0.927226E+01  0.176696E-06  0.370043E-08
  0.373171E+01  0.102483E+02  0.123416E-06 -0.168241E-08
  0.373171E+01  0.112243E+02  0.132638E-09  0.975178E-10
  0.373171E+01  0.122003E+02  0.769365E-10  0.681810E-10
  0.373171E+01  0.131764E+02  0.824281E-10  0.667957E-10
  0.373171E+01  0.141524E+02  0.561467E-10  0.460759E-10
  0.373171E+01  0.151284E+02  0.120569E-06 -0.197662E-07
  0.373171E+01  0.161045E+02  0.576766E-07 -0.142198E-07
  0.373171E+01  0.170805E+02  0.614332E-07 -0.162218E-07
  0.373171E+01  0.180565E+02  0.107127E-06 -0.165562E-07
  0.373171E+01  0.190325E+02  0.235175E-06 -0.282233E-08
  0.373171E+01  0.200086E+02  0.218398E-06 -0.911985E-08
  0.621951E+01  0.487833E+00  0.208048E-06  0.997523E-08
  0.621951E+01  0.146350E+01  0.280391E-06  0.293031E-07
  0.621951E+01  0.243916E+01  0.122310E-06  0.369804E-07
  0.621951E+01  0.341483E+01  0.217279E-06  0.645790E-07
  0.621951E+01  0.439050E+01  0.205702E-06  0.782807E-07
  0.621951E+01  0.536616E+01  0.207669E-06  0.952983E-07
  0.621951E+01  0.634183E+01  0.174204E-06  0.939884E-07
  0.621951E+01  0.731749E+01  0.171030E-06  0.626678E-07
  0.621951E+01  0.829316E+01  0.334976E-06  0.523140E-07
  0.621951E+01  0.926883E+01  0.231297E-06  0.269372E-07
  0.621951E+01  0.102445E+02  0.113537E-06  0.640087E-08
  0.621951E+01  0.112202E+02  0.209648E-09  0.876715E-10
  0.621951E+01  0.121958E+02  0.103136E-09  0.619240E-10
  0.621951E+01  0.131715E+02  0.381497E-10  0.409131E-10
  0.621951E+01  0.141472E+02  0.755520E-10  0.649840E-10
  0.621951E+01  0.151228E+02  0.131333E-06  0.644413E-08
  0.621951E+01  0.160985E+02  0.852664E-07  0.910629E-09
  0.621951E+01  0.170742E+02  0.101999E-06 -0.132522E-07
  0.621951E+01  0.180498E+02  0.100219E-06 -0.173346E-07
  0.621951E+01  0.190255E+02  0.204138E-06 -0.263345E-07
  0.621951E+01  0.200011E+02  0.290080E-06 -0.261303E-07
  0.870732E+01  0.487660E+00  0.157919E-06 -0.335292E-09
  0.870732E+01  0.146298E+01  0.198258E-06  0.674646E-08
  0.870732E+01  0.243830E+01  0.148515E-06  0.196156E-07
  0.870732E+01  0.341362E+01  0.123836E-06  0.295521E-07
  0.870732E+01  0.438894E+01  0.114956E-06  0.483447E-07
  0.870732E+01  0.536426E+01  0.126090E-06  0.572426E-07
  0.870732E+01  0.633958E+01  0.157329E-06  0.748011E-07
  0.870732E+01  0.731490E+01  0.181389E-06  0.764375E-07
  0.870732E+01  0.829023E+01  0.309823E-06  0.583995E-07
  0.870732E+01  0.926555E+01  0.241720E-06  0.457717E-07
  0.870732E+01  0.102409E+02  0.181463E-06  0.197330E-07
  0.870732E+01  0.112162E+02  0.467374E-09  0.139513E-09
  0.870732E+01  0.121915E+02  0.941723E-10  0.712064E-10
  0.870732E+01  0.131668E+02  0.342372E-10  0.562074E-10
  0.870732E+01  0.141421E+02  0.262183E-10  0.449731E-10
  0.870732E+01  0.151175E+02  0.903701E-07 -0.209176E-08
  0.870732E+01  0.160928E+02  0.100801E-06 -0.643556E-08
  0.870732E+01  0.170681E+02  0.117122E-06 -0.107230E-07
  0.870732E+01  0.180434E+02  0.192836E-06 -0.338731E-07
  0.870732E+01  0.190188E+02  0.253728E-06 -0.512741E-07
  0.870732E+01  0.199941E+02  0.166980E-06 -0.295235E-07
  0.111951E+02  0.487452E+00  0.173791E-06 -0.974387E-08
  0.111951E+02  0.146236E+01  0.166051E-06 -0.182074E-07
  0.111951E+02  0.243726E+01  0.111681E-06 -0.433594E-08
  0.111951E+02  0.341216E+01  0.716424E-07  0.990578E-08
  0.111951E+02  0.438707E+01  0.607966E-07  0.177609E-07
  0.111951E+02  0.536197E+01  0.108122E-06  0.255212E-07
  0.111951E+02  0.633688E+01  0.104029E-06  0.223434E-07
  0.111951E+02  0.731178E+01  0.123191E-06  0.232416E-07
  0.111951E+02  0.828669E+01  0.319602E-06  0.520132E-07
  0.111951E+02  0.926159E+01  0.271841E-06  0.375652E-07
  0.111951E+02  0.102365E+02  0.265026E-06  0.106470E-07
  0.111951E+02  0.112114E+02  0.270148E-09 -0.120793E-10
  0.111951E+02  0.121863E+02  0.158997E-09  0.811791E-10
  0.111951E+02  0.131612E+02  0.322004E-10  0.655215E-10
  0.111951E+02  0.141361E+02  0.208253E-10  0.434541E-10
  0.111951E+02  0.151110E+02  0.183163E-06 -0.160392E-07
  0.111951E+02  0.160859E+02  0.992257E-07 -0.270202E-07
  0.111951E+02  0.170608E+02  0.183985E-06 -0.529069E-07
  0.111951E+02  0.180357E+02  0.244166E-06 -0.469573E-07
  0.111951E+02  0.190106E+02  0.244634E-06 -0.225808E-07
  0.111951E+02  0.199855E+02  0.142331E-06 -0.150684E-07
  0.136829E+02  0.487297E+00  0.250643E-06 -0.147682E-07
  0.136829E+02  0.146189E+01  0.149421E-06 -0.170836E-07
  0.136829E+02  0.243649E+01  0.577598E-07 -0.197894E-08
  0.136829E+02  0.341108E+01  0.690039E-07  0.249336E-09
  0.136829E+02  0.438568E+01  0.488659E-07 -0.349465E-08
  0.136829E+02  0.536027E+01  0.993234E-07 -0.188410E-09
  0.136829E+02  0.633487E+01  0.125821E-06  0.246648E-08
  0.136829E+02  0.730946E+01  0.166783E-06 -0.432966E-08
  0.136829E+02  0.828406E+01  0.164763E-06  0.654527E-08
  0.136829E+02  0.925865E+01  0.439283E-06  0.428136E-07
  0.136829E+02  0.102332E+02  0.348613E-06  0.169495E-07
  0.136829E+02  0.112078E+02  0.899257E-10  0.297331E-10
  0.136829E+02  0.121824E+02  0.650339E-10  0.366058E-10
  0.136829E+02  0.131570E+02  0.186117E-10  0.274430E-10
  0.136829E+02  0.141316E+02  0.343030E-10  0.352240E-10
  0.136829E+02  0.151062E+02  0.254751E-06 -0.127070E-07
  0.136829E+02  0.160808E+02  0.195210E-06 -0.377148E-07
  0.136829E+02  0.170554E+02  0.108187E-06 -0.280901E-07
  0.136829E+02  0.180300E+02  0.155944E-06 -0.271555E-07
  0.136829E+02  0.190046E+02  0.224271E-06 -0.314903E-07
  0.136829E+02  0.199792E+02  0.160777E-06 -0.186156E-07
  0.161707E+02  0.487164E+00  0.327660E-06  0.583179E-08
  0.161707E+02  0.146149E+01  0.877203E-07  0.147865E-08
  0.161707E+02  0.243582E+01  0.733190E-07 -0.599993E-08
  0.161707E+02  0.341015E+01  0.109881E-06 -0.271849E-07
  0.161707E+02  0.438448E+01  0.600902E-07 -0.272071E-07
  0.161707E+02  0.535880E+01  0.932941E-07 -0.270906E-07
  0.161707E+02  0.633313E+01  0.146642E-06 -0.253532E-07
  0.161707E+02  0.730746E+01  0.169835E-06 -0.204430E-07
  0.161707E+02  0.828179E+01  0.165120E-06 -0.297363E-07
  0.161707E+02  0.925612E+01  0.304624E-06 -0.372374E-07
  0.161707E+02  0.102304E+02  0.400033E-06 -0.490378E-08
  0.161707E+02  0.112048E+02  0.540225E-10  0.843304E-10
  0.161707E+02  0.121791E+02  0.844801E-10  0.909864E-10
  0.161707E+02  0.131534E+02  0.608270E-10  0.521956E-10
  0.161707E+02  0.141278E+02  0.719497E-10  0.208789E-10
  0.161707E+02  0.151021E+02  0.344581E-06 -0.583715E-08
  0.161707E+02  0.160764E+02  0.215104E-06 -0.248872E-08
  0.161707E+02  0.170507E+02  0.120808E-06  0.152819E-08
  0.161707E+02  0.180251E+02  0.258478E-06 -0.809326E-08
  0.161707E+02  0.189994E+02  0.195300E-06 -0.189535E-07
  0.161707E+02  0.199737E+02  0.149998E-06 -0.199374E-07
  0.186585E+02  0.486961E+00  0.231021E-06  0.904367E-08
  0.186585E+02  0.146088E+01  0.201270E-06  0.263733E-08
  0.186585E+02  0.243480E+01  0.152613E-06 -0.429662E-07
  0.186585E+02  0.340872E+01  0.626619E-07 -0.239881E-07
  0.186585E+02  0.438265E+01  0.588529E-07 -0.249703E-07
  0.186585E+02  0.535657E+01  0.896213E-07 -0.209894E-07
  0.186585E+02  0.633049E+01  0.116107E-06 -0.154229E-07
  0.186585E+02  0.730441E+01  0.194569E-06 -0.175011E-07
  0.186585E+02  0.827833E+01  0.261669E-06 -0.330499E-07
  0.186585E+02  0.925225E+01  0.182057E-06 -0.296624E-07
  0.186585E+02  0.102262E+02  0.276816E-06 -0.193870E-07
  0.186585E+02  0.112001E+02  0.708062E-10  0.146805E-09
  0.186585E+02  0.121740E+02  0.797683E-10  0.179759E-09
  0.186585E+02  0.131479E+02  0.285943E-09  0.178183E-09
  0.186585E+02  0.141219E+02  0.175011E-09  0.826171E-10
  0.186585E+02  0.150958E+02  0.361314E-06  0.157515E-07
  0.186585E+02  0.160697E+02  0.239260E-06  0.245948E-07
  0.186585E+02  0.170436E+02  0.135335E-06  0.146834E-07
  0.186585E+02  0.180175E+02  0.287090E-06  0.188455E-07
  0.186585E+02  0.189915E+02  0.313179E-06  0.192313E-07
  0.186585E+02  0.199654E+02  0.147469E-06 -0.518703E-08
  0.211463E+02  0.486754E+00  0.344243E-06 -0.221324E-07
  0.211463E+02  0.146026E+01  0.350535E-06 -0.568081E-07
  0.211463E+02  0.243377E+01  0.676605E-07 -0.226926E-07
  0.211463E+02  0.340728E+01  0.613503E-07 -0.163062E-07
  0.211463E+02  0.438079E+01  0.259001E-07 -0.410202E-08
  0.211463E+02  0.535430E+01  0.639327E-07 -0.437760E-08
  0.211463E+02  0.632781E+01  0.156694E-06 -0.154471E-07
  0.211463E+02  0.730132E+01  0.190584E-06 -0.128107E-07
  0.211463E+02  0.827482E+01  0.246649E-06 -0.366659E-08
  0.211463E+02  0.924833E+01  0.234958E-06 -0.633317E-08
  0.211463E+02  0.102218E+02  0.178080E-06 -0.202551E-08
  0.211463E+02  0.111953E+02  0.180645E-09  0.234865E-09
  0.211463E+02  0.121689E+02  0.912322E-10  0.211915E-09
  0.211463E+02  0.131424E+02  0.233119E-09  0.303840E-09
  0.211463E+02  0.141159E+02  0.340320E-09  0.327921E-09
  0.211463E+02  0.150894E+02  0.346304E-06  0.138121E-07
  0.211463E+02  0.160629E+02  0.316014E-06  0.389518E-07
  0.211463E+02  0.170364E+02  0.300663E-06  0.287897E-07
  0.211463E+02  0.180099E+02  0.305155E-06  0.299806E-07
  0.211463E+02  0.189834E+02  0.342945E-06  0.581972E-07
  0.211463E+02  0.199569E+02  0.411508E-06  0.288443E-07
  0.236341E+02  0.486581E+00  0.641357E-06 -0.578863E-07
  0.236341E+02  0.145974E+01  0.288494E-06 -0.691668E-07
  0.236341E+02  0.243291E+01  0.850124E-07 -0.239079E-07
  0.236341E+02  0.340607E+01  0.344111E-07 -0.321155E-08
  0.236341E+02  0.437923E+01  0.159718E-07  0.183187E-08
  0.236341E+02  0.535239E+01  0.116123E-06  0.248399E-08
  0.236341E+02  0.632555E+01  0.164268E-06  0.297597E-08
  0.236341E+02  0.729872E+01  0.166018E-06  0.831311E-08
  0.236341E+02  0.827188E+01  0.264725E-06  0.694545E-08
  0.236341E+02  0.924504E+01  0.208187E-06  0.426618E-08
  0.236341E+02  0.102182E+02  0.213205E-06  0.283923E-08
  0.236341E+02  0.111914E+02  0.440760E-09  0.270559E-09
  0.236341E+02  0.121645E+02  0.117894E-09  0.240472E-09
  0.236341E+02  0.131377E+02  0.860143E-10  0.178082E-09
  0.236341E+02  0.141109E+02  0.226693E-09  0.250432E-09
  0.236341E+02  0.150840E+02  0.304560E-06  0.102846E-07
  0.236341E+02  0.160572E+02  0.282656E-06  0.278301E-07
  0.236341E+02  0.170303E+02  0.392194E-06  0.505039E-07
  0.236341E+02  0.180035E+02  0.326934E-06  0.485456E-07
  0.236341E+02  0.189767E+02  0.395401E-06  0.326074E-07
  0.236341E+02  0.199498E+02  0.669845E-06 -0.622462E-09
  0.261220E+02  0.486354E+00  0.812299E-06 -0.131386E-07
  0.261220E+02  0.145906E+01  0.186454E-06 -0.141191E-07
  0.261220E+02  0.243177E+01  0.477346E-07 -0.306566E-08
  0.261220E+02  0.340448E+01  0.214675E-07 -0.495201E-09
  0.261220E+02  0.437719E+01  0.187774E-07  0.156880E-08
  0.261220E+02  0.534990E+01  0.109313E-06  0.590444E-08
  0.261220E+02  0.632260E+01  0.147391E-06  0.264983E-08
  0.261220E+02  0.729531E+01  0.165620E-06 -0.116585E-07
  0.261220E+02  0.826802E+01  0.408699E-06 -0.474461E-07
  0.261220E+02  0.924073E+01  0.236835E-06 -0.364191E-07
  0.261220E+02  0.102134E+02  0.234373E-06 -0.985962E-08
  0.261220E+02  0.111861E+02  0.400285E-09  0.238580E-09
  0.261220E+02  0.121589E+02  0.834291E-10  0.181279E-09
  0.261220E+02  0.131316E+02  0.136897E-09  0.213955E-09
  0.261220E+02  0.141043E+02  0.142755E-09  0.142627E-09
  0.261220E+02  0.150770E+02  0.279398E-06  0.166706E-07
  0.261220E+02  0.160497E+02  0.276928E-06  0.481070E-07
  0.261220E+02  0.170224E+02  0.376407E-06  0.591570E-07
  0.261220E+02  0.179951E+02  0.451571E-06  0.588325E-07
  0.261220E+02  0.189678E+02  0.529003E-06  0.205740E-07
  0.261220E+02  0.199405E+02  0.638206E-06 -0.718080E-08
  0.286098E+02  0.486051E+00  0.795843E-06  0.837144E-08
  0.286098E+02  0.145815E+01  0.154324E-06  0.115832E-07
  0.286098E+02  0.243026E+01  0.358189E-07  0.601347E-08
  0.286098E+02  0.340236E+01  0.289707E-07  0.416410E-09
  0.286098E+02  0.437446E+01  0.170735E-07 -0.949701E-09
  0.286098E+02  0.534656E+01  0.146833E-06 -0.563769E-08
  0.286098E+02  0.631867E+01  0.276733E-06 -0.373373E-07
  0.286098E+02  0.729077E+01  0.357323E-06 -0.780988E-07
  0.286098E+02  0.826287E+01  0.402944E-06 -0.498179E-07
  0.286098E+02  0.923497E+01  0.176764E-06 -0.180656E-07
  0.286098E+02  0.102071E+02  0.229812E-06 -0.963355E-08
  0.286098E+02  0.111792E+02  0.239786E-09  0.281696E-09
  0.286098E+02  0.121513E+02  0.129572E-09  0.288800E-09
  0.286098E+02  0.131234E+02  0.226370E-09  0.344015E-09
  0.286098E+02  0.140955E+02  0.303435E-09  0.183913E-09
  0.286098E+02  0.150676E+02  0.290025E-06  0.114272E-07
  0.286098E+02  0.160397E+02  0.286390E-06  0.254382E-07
  0.286098E+02  0.170118E+02  0.456576E-06  0.387131E-07
  0.286098E+02  0.179839E+02  0.471324E-06  0.397288E-07
  0.286098E+02  0.189560E+02  0.616806E-06  0.324312E-07
  0.286098E+02  0.199281E+02  0.908412E-06  0.435169E-08
  0.310976E+02  0.485789E+00  0.536367E-06  0.408626E-07
  0.310976E+02  0.145737E+01  0.184092E-06  0.494518E-07
  0.310976E+02  0.242894E+01  0.462204E-07  0.158599E-07
  0.310976E+02  0.340052E+01  0.591441E-07  0.917066E-08
  0.310976E+02  0.437210E+01  0.491332E-07 -0.680436E-08
  0.310976E+02  0.534368E+01  0.185392E-06 -0.215654E-07
  0.310976E+02  0.631525E+01  0.408063E-06 -0.341573E-07
  0.310976E+02  0.728683E+01  0.367496E-06 -0.314706E-07
  0.310976E+02  0.825841E+01  0.369594E-06 -0.156986E-07
  0.310976E+02  0.922999E+01  0.243254E-06 -0.688435E-08
  0.310976E+02  0.102016E+02  0.186160E-06 -0.419479E-08
  0.310976E+02  0.111731E+02  0.181314E-09  0.441235E-09
  0.310976E+02  0.121447E+02  0.295632E-09  0.433975E-09
  0.310976E+02  0.131163E+02  0.214799E-09  0.320484E-09
  0.310976E+02  0.140879E+02  0.627546E-09  0.448628E-09
  0.310976E+02  0.150595E+02  0.287907E-06  0.104363E-07
  0.310976E+02  0.160310E+02  0.405284E-06  0.523416E-08
  0.310976E+02  0.170026E+02  0.418681E-06  0.125822E-07
  0.310976E+02  0.179742E+02  0.587792E-06  0.704071E-07
  0.310976E+02  0.189458E+02  0.820655E-06  0.639010E-07
  0.310976E+02  0.199173E+02  0.122557E-05  0.211691E-07
  0.335854E+02  0.485511E+00  0.234633E-06  0.916092E-08
  0.335854E+02  0.145653E+01  0.211404E-06  0.351052E-07
  0.335854E+02  0.242756E+01  0.835923E-07  0.257324E-07
  0.335854E+02  0.339858E+01  0.486449E-07  0.885652E-08
  0.335854E+02  0.436960E+01  0.105701E-06  0.756473E-09
  0.335854E+02  0.534062E+01  0.186841E-06 -0.168174E-07
  0.335854E+02  0.631165E+01  0.399310E-06 -0.250842E-07
  0.335854E+02  0.728267E+01  0.400219E-06 -0.342126E-07
  0.335854E+02  0.825369E+01  0.360792E-06 -0.594751E-07
  0.335854E+02  0.922471E+01  0.250628E-06 -0.278766E-07
  0.335854E+02  0.101957E+02  0.216673E-06 -0.173792E-08
  0.335854E+02  0.111668E+02  0.630611E-10  0.398712E-09
  0.335854E+02  0.121378E+02  0.273655E-09  0.614734E-09
  0.335854E+02  0.131088E+02  0.464916E-09  0.875616E-09
  0.335854E+02  0.140798E+02  0.458391E-09  0.841641E-09
  0.335854E+02  0.150508E+02  0.257808E-06  0.123869E-07
  0.335854E+02  0.160219E+02  0.441968E-06  0.444850E-07
  0.335854E+02  0.169929E+02  0.420450E-06  0.641196E-07
  0.335854E+02  0.179639E+02  0.424170E-06  0.707805E-07
  0.335854E+02  0.189349E+02  0.108623E-05  0.545988E-07
  0.335854E+02  0.199060E+02  0.139583E-05 -0.221753E-07
  0.360732E+02  0.485340E+00  0.215009E-06  0.225780E-08
  0.360732E+02  0.145602E+01  0.131480E-06  0.996579E-08
  0.360732E+02  0.242670E+01  0.772233E-07  0.234791E-07
  0.360732E+02  0.339738E+01  0.125657E-06  0.223364E-07
  0.360732E+02  0.436806E+01  0.983521E-07  0.315309E-08
  0.360732E+02  0.533874E+01  0.303629E-06 -0.127040E-07
  0.360732E+02  0.630943E+01  0.304853E-06 -0.194273E-08
  0.360732E+02  0.728011E+01  0.509627E-06  0.207248E-07
  0.360732E+02  0.825079E+01  0.339133E-06  0.226685E-07
  0.360732E+02  0.922147E+01  0.172112E-06  0.183207E-08
  0.360732E+02  0.101921E+02  0.208143E-06  0.702514E-10
  0.360732E+02  0.111628E+02  0.154338E-09  0.849632E-09
  0.360732E+02  0.121335E+02  0.357590E-09  0.931008E-09
  0.360732E+02  0.131042E+02  0.678393E-09  0.940460E-09
  0.360732E+02  0.140749E+02  0.288631E-09  0.465052E-09
  0.360732E+02  0.150456E+02  0.228371E-06 -0.364176E-08
  0.360732E+02  0.160162E+02  0.286593E-06 -0.500903E-08
  0.360732E+02  0.169869E+02  0.290174E-06 -0.368970E-08
  0.360732E+02  0.179576E+02  0.617096E-06 -0.621158E-07
  0.360732E+02  0.189283E+02  0.139337E-05 -0.168909E-06
  0.360732E+02  0.198990E+02  0.111704E-05 -0.858730E-07
  0.385610E+02  0.485220E+00  0.174461E-06  0.777580E-09
  0.385610E+02  0.145566E+01  0.109436E-06  0.107822E-07
  0.385610E+02  0.242610E+01  0.604860E-07  0.184496E-07
  0.385610E+02  0.339654E+01  0.117292E-06  0.246698E-07
  0.385610E+02  0.436698E+01  0.156692E-06  0.169436E-07
  0.385610E+02  0.533742E+01  0.191726E-06  0.226416E-07
  0.385610E+02  0.630786E+01  0.248586E-06  0.406097E-07
  0.385610E+02  0.727830E+01  0.276573E-06  0.594876E-07
  0.385610E+02  0.824874E+01  0.308304E-06  0.137340E-06
  0.385610E+02  0.921918E+01  0.419267E-06  0.118005E-06
  0.385610E+02  0.101896E+02  0.302113E-06  0.273057E-07
  0.385610E+02  0.111601E+02  0.907081E-10  0.496630E-09
  0.385610E+02  0.121305E+02  0.267343E-09  0.584439E-09
  0.385610E+02  0.131009E+02  0.457798E-09  0.894465E-09
  0.385610E+02  0.140714E+02  0.637182E-09  0.114474E-08
  0.385610E+02  0.150418E+02  0.246126E-06 -0.104753E-07
  0.385610E+02  0.160123E+02  0.310312E-06 -0.369148E-07
  0.385610E+02  0.169827E+02  0.360512E-06 -0.742826E-07
  0.385610E+02  0.179531E+02  0.649632E-06 -0.115183E-06
  0.385610E+02  0.189236E+02  0.938565E-06 -0.807411E-07
  0.385610E+02  0.198940E+02  0.682303E-06 -0.385090E-07
  0.410488E+02  0.484974E+00  0.199433E-06  0.549450E-08
  0.410488E+02  0.145492E+01  0.596556E-07  0.957166E-08
  0.410488E+02  0.242487E+01  0.599089E-07  0.131219E-07
  0.410488E+02  0.339482E+01  0.105357E-06  0.110536E-07
  0.410488E+02  0.436477E+01  0.125277E-06  0.149798E-07
  0.410488E+02  0.533472E+01  0.189885E-06  0.423144E-07
  0.410488E+02  0.630466E+01  0.249380E-06  0.632176E-07
  0.410488E+02  0.727461E+01  0.306138E-06  0.965267E-07
  0.410488E+02  0.824456E+01  0.243550E-06  0.827621E-07
  0.410488E+02  0.921451E+01  0.422093E-06  0.996749E-07
  0.410488E+02  0.101845E+02  0.522319E-06  0.600785E-07
  0.410488E+02  0.111544E+02  0.367270E-10  0.293366E-09
  0.410488E+02  0.121244E+02  0.178761E-09  0.406140E-09
  0.410488E+02  0.130943E+02  0.752305E-10  0.161175E-09
  0.410488E+02  0.140642E+02  0.112003E-09  0.229029E-09
  0.410488E+02  0.150342E+02  0.309398E-06 -0.868143E-08
  0.410488E+02  0.160041E+02  0.381062E-06 -0.249245E-07
  0.410488E+02  0.169741E+02  0.524594E-06 -0.752089E-07
  0.410488E+02  0.179440E+02  0.559709E-06 -0.969597E-07
  0.410488E+02  0.189140E+02  0.957036E-06 -0.100307E-06
  0.410488E+02  0.198839E+02  0.523990E-06 -0.552027E-07
  0.435366E+02  0.484801E+00  0.147627E-06  0.583081E-08
  0.435366E+02  0.145440E+01  0.827223E-07  0.695718E-08
  0.435366E+02  0.242400E+01  0.608229E-07 -0.447109E-08
  0.435366E+02  0.339360E+01  0.143547E-06 -0.102176E-07
  0.435366E+02  0.436320E+01  0.148185E-06 -0.328540E-08
  0.435366E+02  0.533281E+01  0.118544E-06  0.286153E-08
  0.435366E+02  0.630241E+01  0.215475E-06  0.297724E-07
  0.435366E+02  0.727201E+01  0.167144E-06  0.485967E-07
  0.435366E+02  0.824161E+01  0.360248E-06  0.758400E-07
  0.435366E+02  0.921121E+01  0.368122E-06  0.337679E-07
  0.435366E+02  0.101808E+02  0.746348E-06  0.618343E-08
  0.435366E+02  0.111504E+02  0.165810E-10  0.212000E-09
  0.435366E+02  0.121200E+02  0.458399E-10  0.155900E-09
  0.435366E+02  0.130896E+02  0.200185E-09  0.362874E-09
  0.435366E+02  0.140592E+02  0.956655E-10  0.256937E-09
  0.435366E+02  0.150288E+02  0.309250E-06  0.944561E-08
  0.435366E+02  0.159984E+02  0.374353E-06 -0.296470E-08
  0.435366E+02  0.169680E+02  0.759017E-06 -0.278192E-07
  0.435366E+02  0.179376E+02  0.614048E-06 -0.795347E-07
  0.435366E+02  0.189072E+02  0.919301E-06 -0.978369E-07
  0.435366E+02  0.198768E+02  0.357607E-06 -0.323437E-07
  0.460244E+02  0.484671E+00  0.133125E-06 -0.435371E-08
  0.460244E+02  0.145401E+01  0.133657E-06 -0.206040E-07
  0.460244E+02  0.242335E+01  0.843450E-07 -0.277703E-07
  0.460244E+02  0.339269E+01  0.551135E-07 -0.154011E-07
  0.460244E+02  0.436203E+01  0.121245E-06 -0.886157E-08
  0.460244E+02  0.533138E+01  0.117331E-06 -0.833713E-08
  0.460244E+02  0.630072E+01  0.122616E-06 -0.424566E-08
  0.460244E+02  0.727006E+01  0.168542E-06  0.289044E-08
  0.460244E+02  0.823940E+01  0.277692E-06  0.240732E-07
  0.460244E+02  0.920874E+01  0.565910E-06  0.264077E-07
  0.460244E+02  0.101781E+02  0.653002E-06  0.197106E-08
  0.460244E+02  0.111474E+02  0.191822E-10  0.307608E-09
  0.460244E+02  0.121168E+02  0.829412E-11  0.373683E-09
  0.460244E+02  0.130861E+02  0.953624E-10  0.394199E-09
  0.460244E+02  0.140554E+02  0.173765E-09  0.416280E-09
  0.460244E+02  0.150248E+02  0.221090E-06 -0.103387E-08
  0.460244E+02  0.159941E+02  0.574836E-06 -0.167577E-07
  0.460244E+02  0.169635E+02  0.553145E-06 -0.686691E-10
  0.460244E+02  0.179328E+02  0.976247E-06 -0.716143E-08
  0.460244E+02  0.189022E+02  0.665024E-06 -0.336712E-07
  0.460244E+02  0.198715E+02  0.335558E-06 -0.191183E-07
  0.485122E+02  0.484579E+00  0.196904E-06 -0.133362E-07
  0.485122E+02  0.145374E+01  0.116409E-06 -0.247609E-07
  0.485122E+02  0.242289E+01  0.732749E-07 -0.188317E-07
  0.485122E+02  0.339205E+01  0.399940E-07 -0.955119E-08
  0.485122E+02  0.436121E+01  0.945992E-07 -0.411226E-08
  0.485122E+02  0.533036E+01  0.120841E-06 -0.147723E-08
  0.485122E+02  0.629952E+01  0.128834E-06 -0.977966E-08
  0.485122E+02  0.726868E+01  0.154452E-06 -0.266054E-07
  0.485122E+02  0.823784E+01  0.134310E-06 -0.180998E-07
  0.485122E+02  0.920699E+01  0.505220E-06  0.203144E-07
  0.485122E+02  0.101761E+02  0.824534E-06  0.321838E-07
  0.485122E+02  0.111453E+02  0.123781E-09  0.114844E-08
  0.485122E+02  0.121145E+02  0.145031E-09  0.740216E-09
  0.485122E+02  0.130836E+02  0.219025E-09  0.482143E-09
  0.485122E+02  0.140528E+02  0.275502E-09  0.496006E-09
  0.485122E+02  0.150219E+02  0.359835E-06 -0.340462E-07
  0.485122E+02  0.159911E+02  0.421855E-06 -0.357684E-07
  0.485122E+02  0.169602E+02  0.572741E-06 -0.425138E-07
  0.485122E+02  0.179294E+02  0.855236E-06 -0.566452E-07
  0.485122E+02  0.188986E+02  0.612563E-06 -0.621492E-08
  0.485122E+02  0.198677E+02  0.258128E-06 -0.141722E-07
  0.510000E+02  0.484482E+00  0.296151E-06  0.180718E-08
  0.510000E+02  0.145345E+01  0.172032E-06  0.542034E-08
  0.510000E+02  0.242241E+01  0.799269E-07 -0.394808E-08
  0.510000E+02  0.339138E+01  0.441058E-07 -0.920065E-08
  0.510000E+02  0.436034E+01  0.101559E-06 -0.966181E-08
  0.510000E+02  0.532930E+01  0.145435E-06 -0.153465E-07
  0.510000E+02  0.629827E+01  0.234247E-06 -0.515638E-07
  0.510000E+02  0.726723E+01  0.130461E-06 -0.291551E-07
  0.510000E+02  0.823620E+01  0.131038E-06 -0.374052E-07
  0.510000E+02  0.920516E+01  0.292167E-06 -0.341360E-07
  0.510000E+02  0.101741E+02  0.778923E-06 -0.127584E-07
  0.510000E+02  0.111431E+02  0.121696E-09  0.100394E-08
  0.510000E+02  0.121121E+02  0.146266E-09  0.934822E-09
  0.510000E+02  0.130810E+02  0.378600E-09  0.147863E-08
  0.510000E+02  0.140500E+02  0.723697E-09  0.168951E-08
  0.510000E+02  0.150189E+02  0.553717E-06 -0.284970E-07
  0.510000E+02  0.159879E+02  0.338397E-06 -0.441829E-07
  0.510000E+02  0.169569E+02  0.866121E-06 -0.728773E-07
  0.510000E+02  0.179258E+02  0.667173E-06 -0.866825E-07
  0.510000E+02  0.188948E+02  0.567876E-06 -0.547585E-07
  0.510000E+02  0.198638E+02  0.251552E-06 -0.104568E-07
  0.534878E+02  0.484357E+00  0.262674E-06  0.135408E-07
  0.534878E+02  0.145307E+01  0.128393E-06  0.156466E-07
  0.534878E+02  0.242179E+01  0.150351E-06  0.971241E-08
  0.534878E+02  0.339050E+01  0.828651E-07 -0.115451E-07
  0.534878E+02  0.435921E+01  0.103997E-06 -0.229053E-07
  0.534878E+02  0.532793E+01  0.324514E-06 -0.773537E-07
  0.534878E+02  0.629664E+01  0.129255E-06 -0.350751E-07
  0.534878E+02  0.726536E+01  0.166786E-06 -0.307633E-07
  0.534878E+02  0.823407E+01  0.223313E-06 -0.418702E-07
  0.534878E+02  0.920279E+01  0.284843E-06 -0.581634E-07
  0.534878E+02  0.101715E+02  0.662617E-06 -0.330971E-07
  0.534878E+02  0.111402E+02  0.950199E-10  0.829931E-09
  0.534878E+02  0.121089E+02  0.137134E-09  0.776794E-09
  0.534878E+02  0.130776E+02  0.192842E-09  0.585034E-09
  0.534878E+02  0.140464E+02  0.264237E-09  0.435820E-09
  0.534878E+02  0.150151E+02  0.724291E-06 -0.358235E-09
  0.534878E+02  0.159838E+02  0.507251E-06 -0.430356E-07
  0.534878E+02  0.169525E+02  0.934192E-06 -0.851018E-07
  0.534878E+02  0.179212E+02  0.613487E-06 -0.658586E-07
  0.534878E+02  0.188899E+02  0.422464E-06 -0.500161E-07
  0.534878E+02  0.198586E+02  0.245055E-06 -0.492820E-07
  0.559756E+02  0.484190E+00  0.174400E-06  0.899090E-08
  0.559756E+02  0.145257E+01  0.216133E-06  0.217175E-07
  0.559756E+02  0.242095E+01  0.218259E-06  0.257700E-08
  0.559756E+02  0.338933E+01  0.309571E-06 -0.567493E-07
  0.559756E+02  0.435771E+01  0.334551E-06 -0.142970E-06
  0.559756E+02  0.532609E+01  0.197226E-06 -0.103955E-06
  0.559756E+02  0.629447E+01  0.124652E-06 -0.783873E-07
  0.559756E+02  0.726284E+01  0.172035E-06 -0.789432E-07
  0.559756E+02  0.823122E+01  0.297612E-06 -0.976895E-07
  0.559756E+02  0.919960E+01  0.299928E-06 -0.802518E-07
  0.559756E+02  0.101680E+02  0.441154E-06 -0.337767E-07
  0.559756E+02  0.111364E+02  0.449183E-10  0.292781E-09
  0.559756E+02  0.121047E+02  0.161695E-09  0.358341E-09
  0.559756E+02  0.130731E+02  0.251012E-09  0.396824E-09
  0.559756E+02  0.140415E+02  0.388790E-09  0.546907E-09
  0.559756E+02  0.150099E+02  0.615132E-06 -0.235170E-07
  0.559756E+02  0.159783E+02  0.777637E-06 -0.844199E-07
  0.559756E+02  0.169466E+02  0.105687E-05 -0.661053E-07
  0.559756E+02  0.179150E+02  0.588620E-06 -0.233071E-07
  0.559756E+02  0.188834E+02  0.624828E-06 -0.314578E-07
  0.559756E+02  0.198518E+02  0.125467E-06 -0.168301E-07
  0.584634E+02  0.483923E+00  0.241109E-06 -0.149393E-07
  0.584634E+02  0.145177E+01  0.232834E-06 -0.393039E-07
  0.584634E+02  0.241962E+01  0.451873E-06 -0.966589E-07
  0.584634E+02  0.338746E+01  0.483198E-06 -0.124238E-06
  0.584634E+02  0.435531E+01  0.339553E-06 -0.848218E-07
  0.584634E+02  0.532315E+01  0.263204E-06 -0.863825E-07
  0.584634E+02  0.629100E+01  0.127470E-06 -0.685866E-07
  0.584634E+02  0.725885E+01  0.261928E-06 -0.990001E-07
  0.584634E+02  0.822669E+01  0.235991E-06 -0.876338E-07
  0.584634E+02  0.919454E+01  0.305196E-06 -0.682391E-07
  0.584634E+02  0.101624E+02  0.424276E-06 -0.219580E-07
  0.584634E+02  0.111302E+02 -0.326451E-12  0.260932E-09
  0.584634E+02  0.120981E+02 -0.753944E-10  0.364911E-09
  0.584634E+02  0.130659E+02 -0.171844E-09  0.738057E-09
  0.584634E+02  0.140338E+02  0.108790E-09  0.100164E-08
  0.584634E+02  0.150016E+02  0.107498E-05 -0.258791E-07
  0.584634E+02  0.159695E+02  0.721961E-06 -0.768725E-07
  0.584634E+02  0.169373E+02  0.788295E-06 -0.769330E-07
  0.584634E+02  0.179052E+02  0.813475E-06 -0.567368E-07
  0.584634E+02  0.188730E+02  0.555521E-06 -0.345656E-07
  0.584634E+02  0.198408E+02  0.186734E-06 -0.591363E-08
  0.609512E+02  0.483741E+00  0.436750E-06 -0.455120E-07
  0.609512E+02  0.145122E+01  0.467082E-06 -0.120376E-06
  0.609512E+02  0.241871E+01  0.450181E-06 -0.106564E-06
  0.609512E+02  0.338619E+01  0.384440E-06 -0.570159E-07
  0.609512E+02  0.435367E+01  0.337565E-06 -0.703320E-07
  0.609512E+02  0.532115E+01  0.321177E-06 -0.878787E-07
  0.609512E+02  0.628863E+01  0.241001E-06 -0.835930E-07
  0.609512E+02  0.725612E+01  0.286255E-06 -0.743522E-07
  0.609512E+02  0.822360E+01  0.207256E-06 -0.493287E-07
  0.609512E+02  0.919108E+01  0.177184E-06 -0.197008E-07
  0.609512E+02  0.101586E+02  0.346832E-06 -0.354530E-08
  0.609512E+02  0.111260E+02  0.767437E-09  0.292081E-08
  0.609512E+02  0.120935E+02  0.633546E-09  0.258728E-08
  0.609512E+02  0.130610E+02  0.550328E-09  0.153123E-08
  0.609512E+02  0.140285E+02  0.189391E-09  0.627848E-09
  0.609512E+02  0.149960E+02  0.818495E-06  0.975983E-08
  0.609512E+02  0.159635E+02  0.115531E-05  0.153381E-07
  0.609512E+02  0.169309E+02  0.703804E-06 -0.393708E-07
  0.609512E+02  0.178984E+02  0.775755E-06 -0.374319E-07
  0.609512E+02  0.188659E+02  0.449848E-06 -0.923149E-09