title="2d vectors xy, t=    0.150E+03"
variables="x","y","vx","vy"
zone i=    41, j=    41, T="   0.150E+03"
  0.124390E+01  0.124390E+01  0.461890E-06  0.684829E-08
  0.124390E+01  0.373171E+01  0.279348E-06  0.148742E-07
  0.124390E+01  0.621951E+01  0.176781E-06  0.114526E-07
  0.124390E+01  0.870732E+01  0.139175E-06  0.728272E-09
  0.124390E+01  0.111951E+02  0.810067E-07 -0.803032E-08
  0.124390E+01  0.136829E+02  0.786235E-07 -0.797095E-08
  0.124390E+01  0.161707E+02  0.129992E-06  0.162452E-07
  0.124390E+01  0.186585E+02  0.155433E-06  0.128917E-07
  0.124390E+01  0.211463E+02  0.290855E-06  0.214560E-07
  0.124390E+01  0.236341E+02  0.358082E-06  0.503590E-07
  0.124390E+01  0.261220E+02  0.498109E-06  0.445856E-07
  0.124390E+01  0.286098E+02  0.640892E-06  0.151447E-07
  0.124390E+01  0.310976E+02  0.575797E-06 -0.500890E-08
  0.124390E+01  0.335854E+02  0.104467E-05 -0.437906E-07
  0.124390E+01  0.360732E+02  0.552604E-06 -0.526407E-07
  0.124390E+01  0.385610E+02  0.921201E-06  0.243189E-08
  0.124390E+01  0.410488E+02  0.461378E-06  0.473581E-07
  0.124390E+01  0.435366E+02  0.596718E-06  0.396822E-07
  0.124390E+01  0.460244E+02  0.261762E-06  0.905578E-08
  0.124390E+01  0.485122E+02  0.252897E-06 -0.986477E-08
  0.124390E+01  0.510000E+02  0.211917E-06 -0.102200E-07
  0.124390E+01  0.534878E+02  0.149880E-06 -0.249777E-08
  0.124390E+01  0.559756E+02  0.328883E-06 -0.334764E-08
  0.124390E+01  0.584634E+02  0.298694E-06 -0.114304E-07
  0.124390E+01  0.609512E+02  0.173630E-06 -0.247335E-07
  0.124390E+01  0.634390E+02  0.259572E-06 -0.100844E-07
  0.124390E+01  0.659268E+02  0.312035E-06  0.225775E-07
  0.124390E+01  0.684146E+02  0.485107E-06  0.420613E-07
  0.124390E+01  0.709024E+02  0.420589E-06  0.277814E-07
  0.124390E+01  0.733902E+02  0.444165E-06  0.109130E-07
  0.124390E+01  0.758780E+02  0.956184E-07  0.316827E-08
  0.124390E+01  0.783659E+02  0.681584E-07 -0.133014E-08
  0.124390E+01  0.808537E+02  0.307498E-06  0.167590E-07
  0.124390E+01  0.833415E+02  0.481582E-06  0.188550E-07
  0.124390E+01  0.858293E+02  0.694022E-06  0.170830E-07
  0.124390E+01  0.883171E+02  0.390446E-06 -0.116616E-07
  0.124390E+01  0.908049E+02  0.580925E-06 -0.360125E-07
  0.124390E+01  0.932927E+02  0.146004E-05 -0.369676E-07
  0.124390E+01  0.957805E+02  0.134853E-05 -0.105633E-07
  0.124390E+01  0.982683E+02  0.571704E-06  0.458048E-07
  0.124390E+01  0.100756E+03  0.104810E-06  0.830966E-07
  0.373171E+01  0.124390E+01  0.283503E-06  0.145668E-07
  0.373171E+01  0.373171E+01  0.166267E-06  0.201247E-07
  0.373171E+01  0.621951E+01  0.243453E-06  0.221337E-07
  0.373171E+01  0.870732E+01  0.346475E-06  0.159617E-07
  0.373171E+01  0.111951E+02  0.108597E-06  0.630621E-08
  0.373171E+01  0.136829E+02  0.417019E-07  0.129698E-09
  0.373171E+01  0.161707E+02  0.676718E-07  0.924986E-09
  0.373171E+01  0.186585E+02  0.199111E-06  0.354838E-07
  0.373171E+01  0.211463E+02  0.254889E-06  0.785839E-07
  0.373171E+01  0.236341E+02  0.303634E-06  0.591136E-07
  0.373171E+01  0.261220E+02  0.523651E-06  0.102227E-06
  0.373171E+01  0.286098E+02  0.801007E-06  0.859241E-07
  0.373171E+01  0.310976E+02  0.446114E-06 -0.110350E-07
  0.373171E+01  0.335854E+02  0.115285E-05 -0.809208E-07
  0.373171E+01  0.360732E+02  0.587733E-06 -0.599926E-07
  0.373171E+01  0.385610E+02  0.368945E-06 -0.189582E-07
  0.373171E+01  0.410488E+02  0.603905E-06  0.889323E-07
  0.373171E+01  0.435366E+02  0.104147E-05  0.260265E-06
  0.373171E+01  0.460244E+02  0.689637E-06  0.100297E-06
  0.373171E+01  0.485122E+02  0.432649E-06 -0.505025E-07
  0.373171E+01  0.510000E+02  0.204857E-06 -0.297854E-07
  0.373171E+01  0.534878E+02  0.110851E-06 -0.650775E-08
  0.373171E+01  0.559756E+02  0.281908E-06 -0.188859E-07
  0.373171E+01  0.584634E+02  0.267954E-06 -0.168801E-07
  0.373171E+01  0.609512E+02  0.128298E-06 -0.120558E-07
  0.373171E+01  0.634390E+02  0.932813E-07 -0.739039E-08
  0.373171E+01  0.659268E+02  0.306270E-06  0.209690E-07
  0.373171E+01  0.684146E+02  0.412221E-06  0.370063E-07
  0.373171E+01  0.709024E+02  0.479035E-06  0.311202E-07
  0.373171E+01  0.733902E+02  0.220896E-06  0.176442E-07
  0.373171E+01  0.758780E+02  0.155956E-06  0.218342E-07
  0.373171E+01  0.783659E+02  0.156843E-06  0.242998E-07
  0.373171E+01  0.808537E+02  0.236655E-06  0.318944E-07
  0.373171E+01  0.833415E+02  0.463053E-06  0.609107E-07
  0.373171E+01  0.858293E+02  0.607887E-06  0.586089E-07
  0.373171E+01  0.883171E+02  0.441713E-06 -0.138003E-08
  0.373171E+01  0.908049E+02  0.454300E-06 -0.607680E-07
  0.373171E+01  0.932927E+02  0.117604E-05 -0.119315E-06
  0.373171E+01  0.957805E+02  0.636119E-06 -0.259967E-07
  0.373171E+01  0.982683E+02  0.244707E-06  0.354421E-07
  0.373171E+01  0.100756E+03  0.104340E-06  0.146721E-07
  0.621951E+01  0.124390E+01  0.208048E-06  0.947798E-08
  0.621951E+01  0.373171E+01  0.204051E-06  0.319205E-07
  0.621951E+01  0.621951E+01  0.208854E-06  0.146171E-07
  0.621951E+01  0.870732E+01  0.168069E-06  0.876210E-08
  0.621951E+01  0.111951E+02  0.643385E-07  0.204295E-07
  0.621951E+01  0.136829E+02  0.495412E-07  0.110543E-07
  0.621951E+01  0.161707E+02  0.552673E-07  0.695117E-08
  0.621951E+01  0.186585E+02  0.746204E-07  0.101968E-07
  0.621951E+01  0.211463E+02  0.161483E-06  0.270715E-07
  0.621951E+01  0.236341E+02  0.453260E-06  0.666413E-07
  0.621951E+01  0.261220E+02  0.528803E-06  0.683630E-07
  0.621951E+01  0.286098E+02  0.108820E-05  0.554806E-07
  0.621951E+01  0.310976E+02  0.897816E-06 -0.619245E-07
  0.621951E+01  0.335854E+02  0.928671E-06 -0.160265E-06
  0.621951E+01  0.360732E+02  0.739563E-06 -0.960869E-07
  0.621951E+01  0.385610E+02  0.221419E-06 -0.268344E-07
  0.621951E+01  0.410488E+02  0.386892E-06  0.386644E-07
  0.621951E+01  0.435366E+02  0.890773E-06  0.268867E-06
  0.621951E+01  0.460244E+02  0.157166E-05  0.221678E-06
  0.621951E+01  0.485122E+02  0.422896E-06 -0.399744E-07
  0.621951E+01  0.510000E+02  0.225658E-06 -0.198232E-07
  0.621951E+01  0.534878E+02  0.212701E-06 -0.225238E-07
  0.621951E+01  0.559756E+02  0.162361E-06 -0.183752E-07
  0.621951E+01  0.584634E+02  0.150632E-06  0.596465E-09
  0.621951E+01  0.609512E+02  0.152936E-06  0.260731E-07
  0.621951E+01  0.634390E+02  0.131543E-06  0.299939E-08
  0.621951E+01  0.659268E+02  0.212869E-06 -0.278383E-07
  0.621951E+01  0.684146E+02  0.631449E-06 -0.683963E-07
  0.621951E+01  0.709024E+02  0.561790E-06 -0.166256E-07
  0.621951E+01  0.733902E+02  0.394862E-06  0.191095E-07
  0.621951E+01  0.758780E+02  0.319796E-06  0.717508E-07
  0.621951E+01  0.783659E+02  0.125915E-06  0.574199E-07
  0.621951E+01  0.808537E+02  0.278347E-06  0.513728E-07
  0.621951E+01  0.833415E+02  0.249423E-06  0.622709E-07
  0.621951E+01  0.858293E+02  0.577405E-06  0.917937E-07
  0.621951E+01  0.883171E+02  0.377088E-06  0.263441E-07
  0.621951E+01  0.908049E+02  0.208045E-06 -0.352466E-07
  0.621951E+01  0.932927E+02  0.344684E-06 -0.498038E-07
  0.621951E+01  0.957805E+02  0.113056E-06 -0.286489E-08
  0.621951E+01  0.982683E+02  0.137702E-06  0.923017E-08
  0.621951E+01  0.100756E+03  0.822993E-07  0.262045E-08
  0.870732E+01  0.124390E+01  0.157919E-06  0.445801E-08
  0.870732E+01  0.373171E+01  0.119606E-06  0.476493E-08
  0.870732E+01  0.621951E+01  0.209121E-06  0.185380E-07
  0.870732E+01  0.870732E+01  0.520603E-07  0.998990E-08
  0.870732E+01  0.111951E+02  0.402536E-07  0.485655E-08
  0.870732E+01  0.136829E+02  0.474873E-07  0.876304E-08
  0.870732E+01  0.161707E+02  0.275482E-07  0.526662E-08
  0.870732E+01  0.186585E+02  0.875301E-07  0.172986E-07
  0.870732E+01  0.211463E+02  0.155925E-06  0.143382E-07
  0.870732E+01  0.236341E+02  0.405528E-06  0.382926E-07
  0.870732E+01  0.261220E+02  0.677120E-06  0.768211E-07
  0.870732E+01  0.286098E+02  0.112311E-05  0.159955E-07
  0.870732E+01  0.310976E+02  0.159658E-05 -0.145885E-06
  0.870732E+01  0.335854E+02  0.101391E-05 -0.191997E-06
  0.870732E+01  0.360732E+02  0.573045E-06 -0.122865E-06
  0.870732E+01  0.385610E+02  0.359372E-06 -0.192609E-07
  0.870732E+01  0.410488E+02  0.272655E-06  0.805682E-08
  0.870732E+01  0.435366E+02  0.471973E-06  0.124329E-07
  0.870732E+01  0.460244E+02  0.156758E-05  0.937004E-07
  0.870732E+01  0.485122E+02  0.370612E-06  0.417461E-07
  0.870732E+01  0.510000E+02  0.249972E-06 -0.271806E-07
  0.870732E+01  0.534878E+02  0.113799E-06 -0.189098E-07
  0.870732E+01  0.559756E+02  0.117656E-06  0.480898E-08
  0.870732E+01  0.584634E+02  0.146416E-06  0.312022E-07
  0.870732E+01  0.609512E+02  0.112956E-06  0.307141E-07
  0.870732E+01  0.634390E+02  0.220393E-06  0.965052E-08
  0.870732E+01  0.659268E+02  0.317345E-06 -0.692724E-07
  0.870732E+01  0.684146E+02  0.446141E-06 -0.897006E-07
  0.870732E+01  0.709024E+02  0.415355E-06 -0.432827E-07
  0.870732E+01  0.733902E+02  0.468691E-06  0.497483E-07
  0.870732E+01  0.758780E+02  0.336008E-06  0.726594E-07
  0.870732E+01  0.783659E+02  0.235347E-06  0.524385E-07
  0.870732E+01  0.808537E+02  0.263915E-06  0.523931E-07
  0.870732E+01  0.833415E+02  0.233004E-06  0.552013E-07
  0.870732E+01  0.858293E+02  0.521076E-06  0.927390E-07
  0.870732E+01  0.883171E+02  0.364918E-06  0.437429E-07
  0.870732E+01  0.908049E+02  0.190801E-06 -0.134221E-07
  0.870732E+01  0.932927E+02  0.122920E-06 -0.252418E-08
  0.870732E+01  0.957805E+02  0.607526E-07  0.241371E-08
  0.870732E+01  0.982683E+02  0.487384E-07 -0.105498E-08
  0.870732E+01  0.100756E+03  0.338594E-07  0.341452E-09
  0.111951E+02  0.124390E+01  0.173791E-06  0.434866E-09
  0.111951E+02  0.373171E+01  0.168085E-06 -0.314289E-08
  0.111951E+02  0.621951E+01  0.132162E-06  0.932946E-09
  0.111951E+02  0.870732E+01  0.723904E-07  0.115960E-07
  0.111951E+02  0.111951E+02  0.293362E-07  0.341315E-08
  0.111951E+02  0.136829E+02  0.311876E-07  0.270902E-08
  0.111951E+02  0.161707E+02  0.462837E-07  0.389480E-08
  0.111951E+02  0.186585E+02  0.630118E-07  0.461387E-08
  0.111951E+02  0.211463E+02  0.228235E-06  0.137642E-07
  0.111951E+02  0.236341E+02  0.448910E-06  0.199224E-07
  0.111951E+02  0.261220E+02  0.570428E-06 -0.273140E-07
  0.111951E+02  0.286098E+02  0.119886E-05 -0.981255E-07
  0.111951E+02  0.310976E+02  0.119917E-05 -0.129886E-06
  0.111951E+02  0.335854E+02  0.124923E-05 -0.165391E-06
  0.111951E+02  0.360732E+02  0.489582E-06 -0.665142E-07
  0.111951E+02  0.385610E+02  0.379148E-06 -0.315654E-08
  0.111951E+02  0.410488E+02  0.475233E-06 -0.171571E-07
  0.111951E+02  0.435366E+02  0.468322E-06 -0.599759E-07
  0.111951E+02  0.460244E+02  0.635360E-06 -0.225154E-07
  0.111951E+02  0.485122E+02  0.473645E-06  0.106247E-07
  0.111951E+02  0.510000E+02  0.269882E-06 -0.323063E-07
  0.111951E+02  0.534878E+02  0.950151E-07  0.112395E-09
  0.111951E+02  0.559756E+02  0.117360E-06  0.253147E-07
  0.111951E+02  0.584634E+02  0.147500E-06  0.559259E-07
  0.111951E+02  0.609512E+02  0.151723E-06  0.528284E-07
  0.111951E+02  0.634390E+02  0.468065E-06  0.507450E-07
  0.111951E+02  0.659268E+02  0.381301E-06 -0.569308E-08
  0.111951E+02  0.684146E+02  0.222375E-06 -0.282125E-07
  0.111951E+02  0.709024E+02  0.424050E-06 -0.170383E-07
  0.111951E+02  0.733902E+02  0.307863E-06  0.134458E-07
  0.111951E+02  0.758780E+02  0.482390E-06  0.177591E-07
  0.111951E+02  0.783659E+02  0.195396E-06 -0.176620E-07
  0.111951E+02  0.808537E+02  0.266089E-06 -0.140150E-08
  0.111951E+02  0.833415E+02  0.333299E-06  0.112579E-07
  0.111951E+02  0.858293E+02  0.446793E-06  0.203990E-07
  0.111951E+02  0.883171E+02  0.624681E-06  0.414365E-07
  0.111951E+02  0.908049E+02  0.374365E-06 -0.147989E-08
  0.111951E+02  0.932927E+02  0.137901E-06 -0.281686E-08
  0.111951E+02  0.957805E+02  0.127184E-06 -0.170014E-08
  0.111951E+02  0.982683E+02  0.452455E-07 -0.130714E-08
  0.111951E+02  0.100756E+03  0.403340E-07  0.233593E-08
  0.136829E+02  0.124390E+01  0.250643E-06 -0.719614E-08
  0.136829E+02  0.373171E+01  0.249285E-06 -0.132596E-07
  0.136829E+02  0.621951E+01  0.973744E-07 -0.644540E-08
  0.136829E+02  0.870732E+01  0.567976E-07 -0.476515E-08
  0.136829E+02  0.111951E+02  0.455850E-07  0.226150E-08
  0.136829E+02  0.136829E+02  0.652944E-07  0.932218E-09
  0.136829E+02  0.161707E+02  0.519750E-07  0.351281E-08
  0.136829E+02  0.186585E+02  0.975981E-07 -0.201548E-09
  0.136829E+02  0.211463E+02  0.148730E-06 -0.212104E-07
  0.136829E+02  0.236341E+02  0.263611E-06 -0.310314E-07
  0.136829E+02  0.261220E+02  0.861165E-06 -0.143285E-06
  0.136829E+02  0.286098E+02  0.904145E-06 -0.161872E-06
  0.136829E+02  0.310976E+02  0.941268E-06  0.261453E-08
  0.136829E+02  0.335854E+02  0.443854E-06  0.235654E-07
  0.136829E+02  0.360732E+02  0.395428E-06  0.564846E-07
  0.136829E+02  0.385610E+02  0.379686E-06  0.992046E-08
  0.136829E+02  0.410488E+02  0.548995E-06 -0.515305E-07
  0.136829E+02  0.435366E+02  0.771711E-06 -0.917182E-07
  0.136829E+02  0.460244E+02  0.720351E-06 -0.859479E-07
  0.136829E+02  0.485122E+02  0.536622E-06  0.633632E-08
  0.136829E+02  0.510000E+02  0.195662E-06  0.184385E-07
  0.136829E+02  0.534878E+02  0.645213E-07  0.567168E-08
  0.136829E+02  0.559756E+02  0.681936E-07  0.128437E-07
  0.136829E+02  0.584634E+02  0.116116E-06  0.286536E-07
  0.136829E+02  0.609512E+02  0.249384E-06  0.513080E-07
  0.136829E+02  0.634390E+02  0.496541E-06  0.842243E-07
  0.136829E+02  0.659268E+02  0.761026E-06  0.562340E-07
  0.136829E+02  0.684146E+02  0.436600E-06 -0.385683E-07
  0.136829E+02  0.709024E+02  0.373229E-06 -0.288582E-07
  0.136829E+02  0.733902E+02  0.460949E-06 -0.451493E-07
  0.136829E+02  0.758780E+02  0.518369E-06 -0.112326E-06
  0.136829E+02  0.783659E+02  0.253863E-06 -0.341413E-07
  0.136829E+02  0.808537E+02  0.211909E-06 -0.252902E-07
  0.136829E+02  0.833415E+02  0.339940E-06 -0.419874E-07
  0.136829E+02  0.858293E+02  0.426122E-06 -0.454821E-07
  0.136829E+02  0.883171E+02  0.385272E-06 -0.229819E-07
  0.136829E+02  0.908049E+02  0.394371E-06 -0.425787E-07
  0.136829E+02  0.932927E+02  0.159573E-06 -0.293057E-07
  0.136829E+02  0.957805E+02  0.929856E-07 -0.220685E-08
  0.136829E+02  0.982683E+02  0.700188E-07  0.309026E-09
  0.136829E+02  0.100756E+03  0.539453E-07 -0.316256E-08
  0.161707E+02  0.124390E+01  0.327660E-06 -0.177290E-08
  0.161707E+02  0.373171E+01  0.203123E-06 -0.675137E-08
  0.161707E+02  0.621951E+01  0.140613E-06 -0.111238E-07
  0.161707E+02  0.870732E+01  0.363658E-07 -0.395232E-08
  0.161707E+02  0.111951E+02  0.366097E-07 -0.250773E-08
  0.161707E+02  0.136829E+02  0.610034E-07 -0.657202E-08
  0.161707E+02  0.161707E+02  0.483495E-07 -0.416066E-08
  0.161707E+02  0.186585E+02  0.856272E-07 -0.120876E-07
  0.161707E+02  0.211463E+02  0.314618E-06 -0.694209E-07
  0.161707E+02  0.236341E+02  0.183972E-06 -0.725689E-07
  0.161707E+02  0.261220E+02  0.770101E-06 -0.991040E-07
  0.161707E+02  0.286098E+02  0.238418E-06  0.336252E-11
  0.161707E+02  0.310976E+02  0.511770E-06  0.595523E-07
  0.161707E+02  0.335854E+02  0.598091E-06  0.137116E-06
  0.161707E+02  0.360732E+02  0.204318E-06  0.457486E-07
  0.161707E+02  0.385610E+02  0.592601E-06  0.208741E-07
  0.161707E+02  0.410488E+02  0.286194E-06 -0.248073E-07
  0.161707E+02  0.435366E+02  0.763226E-06 -0.569033E-07
  0.161707E+02  0.460244E+02  0.361100E-06  0.238561E-09
  0.161707E+02  0.485122E+02  0.469455E-06  0.359061E-07
  0.161707E+02  0.510000E+02  0.238831E-06  0.381155E-07
  0.161707E+02  0.534878E+02  0.826678E-07  0.210900E-07
  0.161707E+02  0.559756E+02  0.674548E-07  0.186307E-07
  0.161707E+02  0.584634E+02  0.119239E-06  0.183377E-07
  0.161707E+02  0.609512E+02  0.211358E-06  0.178570E-07
  0.161707E+02  0.634390E+02  0.343854E-06  0.250958E-07
  0.161707E+02  0.659268E+02  0.843301E-06  0.194007E-07
  0.161707E+02  0.684146E+02  0.642698E-06 -0.519040E-07
  0.161707E+02  0.709024E+02  0.303974E-06 -0.972617E-07
  0.161707E+02  0.733902E+02  0.647377E-06 -0.160555E-06
  0.161707E+02  0.758780E+02  0.476711E-06 -0.113803E-06
  0.161707E+02  0.783659E+02  0.279970E-06 -0.231803E-07
  0.161707E+02  0.808537E+02  0.420105E-06 -0.739423E-07
  0.161707E+02  0.833415E+02  0.402572E-06 -0.868474E-07
  0.161707E+02  0.858293E+02  0.396449E-06 -0.646766E-07
  0.161707E+02  0.883171E+02  0.653024E-06 -0.145967E-06
  0.161707E+02  0.908049E+02  0.443613E-06 -0.991272E-07
  0.161707E+02  0.932927E+02  0.191566E-06 -0.197868E-08
  0.161707E+02  0.957805E+02  0.290198E-06  0.163330E-07
  0.161707E+02  0.982683E+02  0.243561E-06  0.330931E-08
  0.161707E+02  0.100756E+03  0.582308E-07 -0.192160E-08
  0.186585E+02  0.124390E+01  0.231021E-06 -0.801858E-08
  0.186585E+02  0.373171E+01  0.225111E-06 -0.176918E-07
  0.186585E+02  0.621951E+01  0.165472E-06 -0.655460E-08
  0.186585E+02  0.870732E+01  0.523907E-07 -0.463934E-08
  0.186585E+02  0.111951E+02  0.637519E-07 -0.713070E-08
  0.186585E+02  0.136829E+02  0.532504E-07 -0.105846E-07
  0.186585E+02  0.161707E+02  0.521074E-07 -0.211546E-07
  0.186585E+02  0.186585E+02  0.150824E-06 -0.695292E-07
  0.186585E+02  0.211463E+02  0.281698E-06 -0.646719E-07
  0.186585E+02  0.236341E+02  0.204172E-06 -0.646836E-07
  0.186585E+02  0.261220E+02  0.359720E-06 -0.450368E-07
  0.186585E+02  0.286098E+02  0.273829E-06  0.127523E-07
  0.186585E+02  0.310976E+02  0.363875E-06  0.405979E-07
  0.186585E+02  0.335854E+02  0.397313E-06  0.132078E-06
  0.186585E+02  0.360732E+02  0.488409E-06  0.135297E-06
  0.186585E+02  0.385610E+02  0.435541E-06  0.743173E-07
  0.186585E+02  0.410488E+02  0.446769E-06  0.128160E-07
  0.186585E+02  0.435366E+02  0.689504E-06 -0.157797E-07
  0.186585E+02  0.460244E+02  0.524130E-06  0.493198E-07
  0.186585E+02  0.485122E+02  0.441718E-06  0.763791E-07
  0.186585E+02  0.510000E+02  0.262558E-06  0.639083E-07
  0.186585E+02  0.534878E+02  0.106430E-06  0.390290E-07
  0.186585E+02  0.559756E+02  0.105373E-06  0.347237E-07
  0.186585E+02  0.584634E+02  0.232915E-06  0.133021E-07
  0.186585E+02  0.609512E+02  0.243939E-06 -0.368315E-07
  0.186585E+02  0.634390E+02  0.210237E-06 -0.350129E-07
  0.186585E+02  0.659268E+02  0.108029E-05 -0.597632E-07
  0.186585E+02  0.684146E+02  0.758536E-06 -0.357459E-07
  0.186585E+02  0.709024E+02  0.466724E-06 -0.131417E-06
  0.186585E+02  0.733902E+02  0.706272E-06 -0.176270E-06
  0.186585E+02  0.758780E+02  0.352727E-06 -0.508099E-07
  0.186585E+02  0.783659E+02  0.285707E-06 -0.374331E-07
  0.186585E+02  0.808537E+02  0.636266E-06 -0.113839E-06
  0.186585E+02  0.833415E+02  0.313985E-06 -0.930798E-07
  0.186585E+02  0.858293E+02  0.636692E-06 -0.167055E-06
  0.186585E+02  0.883171E+02  0.656561E-06 -0.158847E-06
  0.186585E+02  0.908049E+02  0.409521E-06 -0.569175E-07
  0.186585E+02  0.932927E+02  0.314304E-06  0.149732E-07
  0.186585E+02  0.957805E+02  0.665858E-06  0.100557E-06
  0.186585E+02  0.982683E+02  0.379622E-06  0.625224E-07
  0.186585E+02  0.100756E+03  0.149237E-06  0.130087E-07
  0.211463E+02  0.124390E+01  0.344243E-06 -0.410674E-07
  0.211463E+02  0.373171E+01  0.116301E-06 -0.348631E-07
  0.211463E+02  0.621951E+01  0.169576E-06 -0.390967E-08
  0.211463E+02  0.870732E+01  0.904340E-07 -0.181995E-08
  0.211463E+02  0.111951E+02  0.261282E-07 -0.151063E-08
  0.211463E+02  0.136829E+02  0.792965E-07 -0.476186E-08
  0.211463E+02  0.161707E+02  0.911257E-07 -0.306921E-07
  0.211463E+02  0.186585E+02  0.950529E-07 -0.366740E-07
  0.211463E+02  0.211463E+02  0.222748E-06 -0.672143E-07
  0.211463E+02  0.236341E+02  0.157009E-06 -0.446752E-07
  0.211463E+02  0.261220E+02  0.251533E-06 -0.268795E-07
  0.211463E+02  0.286098E+02  0.231414E-06 -0.848005E-08
  0.211463E+02  0.310976E+02  0.447565E-06  0.231747E-07
  0.211463E+02  0.335854E+02  0.320804E-06  0.106046E-06
  0.211463E+02  0.360732E+02  0.651210E-06  0.184501E-06
  0.211463E+02  0.385610E+02  0.392464E-06  0.129410E-06
  0.211463E+02  0.410488E+02  0.439169E-06  0.762164E-07
  0.211463E+02  0.435366E+02  0.619442E-06  0.929047E-07
  0.211463E+02  0.460244E+02  0.474701E-06  0.994367E-07
  0.211463E+02  0.485122E+02  0.308398E-06  0.646116E-07
  0.211463E+02  0.510000E+02  0.283226E-06  0.939494E-07
  0.211463E+02  0.534878E+02  0.144594E-06  0.566274E-07
  0.211463E+02  0.559756E+02  0.162032E-06  0.285980E-07
  0.211463E+02  0.584634E+02  0.304544E-06 -0.173232E-07
  0.211463E+02  0.609512E+02  0.386497E-06 -0.903148E-07
  0.211463E+02  0.634390E+02  0.473525E-06 -0.152343E-06
  0.211463E+02  0.659268E+02  0.638623E-06 -0.573118E-07
  0.211463E+02  0.684146E+02  0.665888E-06  0.184017E-07
  0.211463E+02  0.709024E+02  0.578550E-06 -0.234342E-08
  0.211463E+02  0.733902E+02  0.461378E-06 -0.279546E-07
  0.211463E+02  0.758780E+02  0.235742E-06 -0.224254E-07
  0.211463E+02  0.783659E+02  0.333367E-06 -0.447946E-07
  0.211463E+02  0.808537E+02  0.616586E-06 -0.110546E-06
  0.211463E+02  0.833415E+02  0.392079E-06 -0.142672E-06
  0.211463E+02  0.858293E+02  0.562885E-06 -0.142545E-06
  0.211463E+02  0.883171E+02  0.507510E-06 -0.842727E-07
  0.211463E+02  0.908049E+02  0.500850E-06 -0.242687E-07
  0.211463E+02  0.932927E+02  0.436713E-06  0.649495E-07
  0.211463E+02  0.957805E+02  0.743742E-06  0.100285E-06
  0.211463E+02  0.982683E+02  0.614426E-06  0.139008E-06
  0.211463E+02  0.100756E+03  0.468141E-06  0.916373E-07
  0.236341E+02  0.124390E+01  0.641357E-06 -0.293496E-07
  0.236341E+02  0.373171E+01  0.174411E-06 -0.429099E-07
  0.236341E+02  0.621951E+01  0.160213E-06 -0.283786E-07
  0.236341E+02  0.870732E+01  0.891407E-07  0.100369E-07
  0.236341E+02  0.111951E+02  0.378215E-07  0.800434E-09
  0.236341E+02  0.136829E+02  0.620466E-07 -0.716918E-08
  0.236341E+02  0.161707E+02  0.742341E-07 -0.783712E-08
  0.236341E+02  0.186585E+02  0.849443E-07 -0.198636E-07
  0.236341E+02  0.211463E+02  0.160356E-06 -0.274558E-07
  0.236341E+02  0.236341E+02  0.148520E-06 -0.250549E-07
  0.236341E+02  0.261220E+02  0.159732E-06 -0.249833E-07
  0.236341E+02  0.286098E+02  0.478027E-06 -0.426391E-07
  0.236341E+02  0.310976E+02  0.528432E-06  0.123079E-07
  0.236341E+02  0.335854E+02  0.293716E-06  0.402057E-07
  0.236341E+02  0.360732E+02  0.400410E-06  0.473077E-07
  0.236341E+02  0.385610E+02  0.397323E-06  0.767970E-07
  0.236341E+02  0.410488E+02  0.387473E-06  0.723353E-07
  0.236341E+02  0.435366E+02  0.578615E-06  0.156128E-06
  0.236341E+02  0.460244E+02  0.359358E-06  0.142039E-06
  0.236341E+02  0.485122E+02  0.421271E-06  0.159997E-06
  0.236341E+02  0.510000E+02  0.240580E-06  0.114647E-06
  0.236341E+02  0.534878E+02  0.197450E-06  0.579570E-07
  0.236341E+02  0.559756E+02  0.231995E-06  0.492662E-09
  0.236341E+02  0.584634E+02  0.398536E-06 -0.406823E-07
  0.236341E+02  0.609512E+02  0.593418E-06 -0.620758E-07
  0.236341E+02  0.634390E+02  0.552903E-06 -0.860702E-07
  0.236341E+02  0.659268E+02  0.680820E-06 -0.623876E-07
  0.236341E+02  0.684146E+02  0.621399E-06 -0.151339E-07
  0.236341E+02  0.709024E+02  0.401190E-06  0.245539E-07
  0.236341E+02  0.733902E+02  0.545153E-06  0.390788E-07
  0.236341E+02  0.758780E+02  0.216760E-06 -0.331570E-07
  0.236341E+02  0.783659E+02  0.403152E-06 -0.141478E-06
  0.236341E+02  0.808537E+02  0.553052E-06 -0.182468E-06
  0.236341E+02  0.833415E+02  0.414566E-06 -0.160280E-06
  0.236341E+02  0.858293E+02  0.656475E-06 -0.181230E-06
  0.236341E+02  0.883171E+02  0.601502E-06 -0.663389E-07
  0.236341E+02  0.908049E+02  0.573655E-06  0.401170E-07
  0.236341E+02  0.932927E+02  0.347861E-06  0.819051E-07
  0.236341E+02  0.957805E+02  0.104544E-05  0.537906E-07
  0.236341E+02  0.982683E+02  0.504456E-06  0.309102E-07
  0.236341E+02  0.100756E+03  0.481918E-06  0.353620E-07
  0.261220E+02  0.124390E+01  0.812299E-06  0.524779E-08
  0.261220E+02  0.373171E+01  0.274232E-06 -0.129175E-07
  0.261220E+02  0.621951E+01  0.113228E-06 -0.208750E-07
  0.261220E+02  0.870732E+01  0.525984E-07 -0.660767E-08
  0.261220E+02  0.111951E+02  0.818172E-07  0.103400E-07
  0.261220E+02  0.136829E+02  0.594746E-07  0.502196E-08
  0.261220E+02  0.161707E+02  0.910905E-07  0.456837E-08
  0.261220E+02  0.186585E+02  0.981479E-07  0.182499E-08
  0.261220E+02  0.211463E+02  0.199957E-06 -0.132756E-07
  0.261220E+02  0.236341E+02  0.197124E-06 -0.343512E-07
  0.261220E+02  0.261220E+02  0.232033E-06 -0.589416E-07
  0.261220E+02  0.286098E+02  0.490162E-06 -0.695456E-07
  0.261220E+02  0.310976E+02  0.537445E-06 -0.147211E-07
  0.261220E+02  0.335854E+02  0.400287E-06 -0.281323E-08
  0.261220E+02  0.360732E+02  0.360295E-06  0.888477E-08
  0.261220E+02  0.385610E+02  0.359824E-06  0.580387E-07
  0.261220E+02  0.410488E+02  0.456915E-06  0.112843E-06
  0.261220E+02  0.435366E+02  0.412139E-06  0.884521E-07
  0.261220E+02  0.460244E+02  0.318167E-06  0.681680E-07
  0.261220E+02  0.485122E+02  0.430817E-06  0.156434E-06
  0.261220E+02  0.510000E+02  0.371493E-06  0.173185E-06
  0.261220E+02  0.534878E+02  0.422941E-06  0.696101E-07
  0.261220E+02  0.559756E+02  0.224049E-06  0.576890E-09
  0.261220E+02  0.584634E+02  0.418839E-06  0.914162E-08
  0.261220E+02  0.609512E+02  0.487926E-06  0.383667E-08
  0.261220E+02  0.634390E+02  0.766257E-06 -0.163537E-07
  0.261220E+02  0.659268E+02  0.743299E-06 -0.845531E-08
  0.261220E+02  0.684146E+02  0.456114E-06  0.152305E-07
  0.261220E+02  0.709024E+02  0.191414E-06 -0.581207E-09
  0.261220E+02  0.733902E+02  0.320760E-06 -0.167781E-07
  0.261220E+02  0.758780E+02  0.186909E-06 -0.448017E-07
  0.261220E+02  0.783659E+02  0.236354E-06 -0.849355E-07
  0.261220E+02  0.808537E+02  0.301542E-06 -0.100518E-06
  0.261220E+02  0.833415E+02  0.585977E-06 -0.109288E-06
  0.261220E+02  0.858293E+02  0.350929E-06 -0.180183E-07
  0.261220E+02  0.883171E+02  0.456267E-06 -0.418306E-08
  0.261220E+02  0.908049E+02  0.559674E-06  0.104998E-06
  0.261220E+02  0.932927E+02  0.439889E-06  0.585034E-07
  0.261220E+02  0.957805E+02  0.105173E-05  0.247300E-07
  0.261220E+02  0.982683E+02  0.460399E-06  0.204535E-07
  0.261220E+02  0.100756E+03  0.570144E-06 -0.151357E-07
  0.286098E+02  0.124390E+01  0.795843E-06  0.558905E-07
  0.286098E+02  0.373171E+01  0.292384E-06  0.445107E-07
  0.286098E+02  0.621951E+01  0.125106E-06  0.238475E-08
  0.286098E+02  0.870732E+01  0.538200E-07 -0.544011E-08
  0.286098E+02  0.111951E+02  0.309800E-07  0.666494E-10
  0.286098E+02  0.136829E+02  0.809055E-07  0.798459E-08
  0.286098E+02  0.161707E+02  0.858747E-07  0.491035E-08
  0.286098E+02  0.186585E+02  0.173539E-06 -0.112552E-07
  0.286098E+02  0.211463E+02  0.166835E-06 -0.219856E-07
  0.286098E+02  0.236341E+02  0.247141E-06 -0.174867E-07
  0.286098E+02  0.261220E+02  0.288688E-06 -0.251932E-07
  0.286098E+02  0.286098E+02  0.494395E-06 -0.481353E-07
  0.286098E+02  0.310976E+02  0.410819E-06 -0.519192E-07
  0.286098E+02  0.335854E+02  0.387601E-06 -0.608595E-07
  0.286098E+02  0.360732E+02  0.375386E-06 -0.202964E-07
  0.286098E+02  0.385610E+02  0.497047E-06  0.590946E-07
  0.286098E+02  0.410488E+02  0.363303E-06  0.876606E-07
  0.286098E+02  0.435366E+02  0.557446E-06  0.637194E-07
  0.286098E+02  0.460244E+02  0.440325E-06  0.465762E-07
  0.286098E+02  0.485122E+02  0.280188E-06  0.123322E-06
  0.286098E+02  0.510000E+02  0.618724E-06  0.153451E-06
  0.286098E+02  0.534878E+02  0.566102E-06  0.115902E-06
  0.286098E+02  0.559756E+02  0.226428E-06  0.580779E-07
  0.286098E+02  0.584634E+02  0.194505E-06  0.146174E-07
  0.286098E+02  0.609512E+02  0.470403E-06  0.248289E-07
  0.286098E+02  0.634390E+02  0.469056E-06  0.217926E-07
  0.286098E+02  0.659268E+02  0.465043E-06  0.733040E-07
  0.286098E+02  0.684146E+02  0.409296E-06  0.661294E-07
  0.286098E+02  0.709024E+02  0.195433E-06 -0.213136E-08
  0.286098E+02  0.733902E+02  0.216615E-06 -0.226765E-07
  0.286098E+02  0.758780E+02  0.123613E-06 -0.317179E-07
  0.286098E+02  0.783659E+02  0.828451E-07 -0.274656E-07
  0.286098E+02  0.808537E+02  0.131507E-06 -0.336439E-07
  0.286098E+02  0.833415E+02  0.119273E-06 -0.987155E-08
  0.286098E+02  0.858293E+02  0.178647E-06  0.542758E-08
  0.286098E+02  0.883171E+02  0.393205E-06  0.565102E-07
  0.286098E+02  0.908049E+02  0.329166E-06  0.103599E-06
  0.286098E+02  0.932927E+02  0.837037E-06  0.187959E-07
  0.286098E+02  0.957805E+02  0.627629E-06  0.360478E-07
  0.286098E+02  0.982683E+02  0.724910E-06  0.553021E-07
  0.286098E+02  0.100756E+03  0.474164E-06 -0.257002E-07
  0.310976E+02  0.124390E+01  0.536367E-06  0.847577E-07
  0.310976E+02  0.373171E+01  0.398166E-06  0.155906E-06
  0.310976E+02  0.621951E+01  0.250547E-06  0.655143E-07
  0.310976E+02  0.870732E+01  0.610126E-07  0.489981E-08
  0.310976E+02  0.111951E+02  0.783863E-07 -0.390705E-08
  0.310976E+02  0.136829E+02  0.770856E-07 -0.678420E-08
  0.310976E+02  0.161707E+02  0.136882E-06 -0.166743E-07
  0.310976E+02  0.186585E+02  0.177180E-06 -0.268704E-07
  0.310976E+02  0.211463E+02  0.177454E-06 -0.233451E-07
  0.310976E+02  0.236341E+02  0.182743E-06  0.127757E-08
  0.310976E+02  0.261220E+02  0.450363E-06  0.272399E-07
  0.310976E+02  0.286098E+02  0.612938E-06 -0.316962E-07
  0.310976E+02  0.310976E+02  0.632023E-06 -0.127014E-06
  0.310976E+02  0.335854E+02  0.285659E-06 -0.900358E-07
  0.310976E+02  0.360732E+02  0.303823E-06 -0.409465E-07
  0.310976E+02  0.385610E+02  0.241659E-06  0.348081E-09
  0.310976E+02  0.410488E+02  0.445442E-06  0.292773E-07
  0.310976E+02  0.435366E+02  0.104379E-05  0.109724E-07
  0.310976E+02  0.460244E+02  0.313778E-06  0.218882E-07
  0.310976E+02  0.485122E+02  0.342209E-06  0.478622E-07
  0.310976E+02  0.510000E+02  0.572009E-06  0.537346E-07
  0.310976E+02  0.534878E+02  0.243531E-06  0.641770E-07
  0.310976E+02  0.559756E+02  0.150848E-06  0.423324E-07
  0.310976E+02  0.584634E+02  0.184609E-06  0.318112E-08
  0.310976E+02  0.609512E+02  0.219228E-06  0.128374E-07
  0.310976E+02  0.634390E+02  0.415584E-06  0.756254E-07
  0.310976E+02  0.659268E+02  0.270142E-06  0.796521E-07
  0.310976E+02  0.684146E+02  0.423634E-06  0.675986E-07
  0.310976E+02  0.709024E+02  0.115262E-06  0.858091E-08
  0.310976E+02  0.733902E+02  0.164328E-06  0.213055E-09
  0.310976E+02  0.758780E+02  0.126963E-06 -0.129030E-07
  0.310976E+02  0.783659E+02  0.810818E-07 -0.242002E-07