variables="x","h","c"
zone i=     42,T= "1dxhc;t= 0.1500E+03y,z:   1   1"
    0.00000E+00    0.50000E+00    0.00000E+00
    0.24878E+01    0.49389E+00    0.88381E-18
    0.49756E+01    0.48888E+00    0.56732E-17
    0.74634E+01    0.48334E+00    0.24040E-16
    0.99512E+01    0.47848E+00    0.15220E-15
    0.12439E+02    0.47416E+00    0.75182E-15
    0.14927E+02    0.46929E+00    0.26698E-14
    0.17415E+02    0.46346E+00    0.88657E-14
    0.19902E+02    0.46073E+00    0.50710E-14
    0.22390E+02    0.45480E+00    0.16344E-13
    0.24878E+02    0.45100E+00    0.19846E-13
    0.27366E+02    0.44232E+00    0.32179E-13
    0.29854E+02    0.43754E+00    0.46819E-13
    0.32341E+02    0.43186E+00    0.17795E-12
    0.34829E+02    0.42715E+00    0.55530E-12
    0.37317E+02    0.42198E+00    0.23097E-11
    0.39805E+02    0.41765E+00    0.79065E-11
    0.42293E+02    0.41392E+00    0.24145E-10
    0.44780E+02    0.40790E+00    0.66860E-10
    0.47268E+02    0.40197E+00    0.10656E-09
    0.49756E+02    0.39700E+00    0.69779E-09
    0.52244E+02    0.39298E+00    0.12375E-08
    0.54732E+02    0.38653E+00    0.45594E-08
    0.57220E+02    0.37589E+00    0.24753E-07
    0.59707E+02    0.36977E+00    0.86170E-07
    0.62195E+02    0.35273E+00    0.50992E-06
    0.64683E+02    0.34468E+00    0.17888E-05
    0.67171E+02    0.33364E+00    0.57906E-05
    0.69659E+02    0.32834E+00    0.15858E-04
    0.72146E+02    0.31885E+00    0.48083E-04
    0.74634E+02    0.30953E+00    0.12350E-03
    0.77122E+02    0.30321E+00    0.39320E-03
    0.79610E+02    0.29906E+00    0.12911E-02
    0.82098E+02    0.29683E+00    0.31569E-02
    0.84585E+02    0.29669E+00    0.22437E-01
    0.87073E+02    0.30002E+00    0.93785E-01
    0.89561E+02    0.31383E+00    0.25376E+00
    0.92049E+02    0.32221E+00    0.44678E+00
    0.94537E+02    0.33655E+00    0.61721E+00
    0.97024E+02    0.36688E+00    0.77144E+00
    0.99512E+02    0.38715E+00    0.86650E+00
    0.10200E+03    0.40012E+00    0.10000E+01
zone i=     42,T= "1dxhc;t= 0.1500E+03y,z:   1  12"
    0.00000E+00    0.50000E+00    0.00000E+00
    0.24878E+01    0.49292E+00    0.33566E-19
    0.49756E+01    0.48954E+00   -0.74309E-20
    0.74634E+01    0.48594E+00    0.13593E-18
    0.99512E+01    0.48360E+00    0.59918E-18
    0.12439E+02    0.48056E+00    0.17237E-17
    0.14927E+02    0.47561E+00    0.11767E-16
    0.17415E+02    0.47134E+00    0.44556E-16
    0.19902E+02    0.46154E+00    0.33675E-15
    0.22390E+02    0.45343E+00    0.23405E-14
    0.24878E+02    0.44588E+00    0.71262E-14
    0.27366E+02    0.43980E+00    0.26384E-13
    0.29854E+02    0.43560E+00    0.43529E-13
    0.32341E+02    0.42769E+00    0.10775E-12
    0.34829E+02    0.42257E+00    0.50870E-12
    0.37317E+02    0.41811E+00    0.74881E-11
    0.39805E+02    0.41496E+00    0.39080E-10
    0.42293E+02    0.41120E+00    0.13149E-09
    0.44780E+02    0.40651E+00    0.35178E-09
    0.47268E+02    0.40246E+00    0.82156E-09
    0.49756E+02    0.39677E+00    0.16187E-08
    0.52244E+02    0.39044E+00    0.21814E-08
    0.54732E+02    0.38302E+00    0.44230E-08
    0.57220E+02    0.37720E+00    0.60710E-08
    0.59707E+02    0.37054E+00    0.99330E-08
    0.62195E+02    0.36366E+00   -0.13734E-07
    0.64683E+02    0.35451E+00   -0.51542E-07
    0.67171E+02    0.34251E+00   -0.10306E-06
    0.69659E+02    0.32932E+00   -0.18985E-06
    0.72146E+02    0.32027E+00   -0.10227E-05
    0.74634E+02    0.30502E+00   -0.29923E-05
    0.77122E+02    0.29811E+00   -0.54868E-05
    0.79610E+02    0.28994E+00   -0.29879E-05
    0.82098E+02    0.28416E+00    0.82455E-05
    0.84585E+02    0.27823E+00   -0.93715E-04
    0.87073E+02    0.26576E+00   -0.10998E-02
    0.89561E+02    0.25509E+00    0.53680E-03
    0.92049E+02    0.23466E+00    0.83692E-02
    0.94537E+02    0.21950E+00    0.15618E+00
    0.97024E+02    0.20689E+00    0.29944E+00
    0.99512E+02    0.18642E+00    0.58226E+00
    0.10200E+03    0.16003E+00    0.10000E+01
zone i=     42,T= "1dxhc;t= 0.1500E+03y,z:   1  22"
    0.00000E+00    0.49835E+00   -0.52052E-19
    0.24878E+01    0.49229E+00   -0.97560E-19
    0.49756E+01    0.48172E+00   -0.43552E-18
    0.74634E+01    0.47341E+00   -0.14204E-17
    0.99512E+01    0.46065E+00   -0.55510E-17
    0.12439E+02    0.45088E+00   -0.19192E-16
    0.14927E+02    0.44122E+00   -0.42644E-16
    0.17415E+02    0.43241E+00   -0.96321E-16
    0.19902E+02    0.42881E+00   -0.10284E-15
    0.22390E+02    0.42555E+00   -0.40362E-15
    0.24878E+02    0.42085E+00   -0.34765E-14
    0.27366E+02    0.41497E+00   -0.29315E-13
    0.29854E+02    0.40795E+00   -0.23341E-12
    0.32341E+02    0.39799E+00   -0.11573E-11
    0.34829E+02    0.38385E+00   -0.56953E-11
    0.37317E+02    0.36765E+00   -0.28493E-10
    0.39805E+02    0.35545E+00   -0.75585E-10
    0.42293E+02    0.34422E+00   -0.34367E-09
    0.44780E+02    0.33346E+00   -0.11007E-08
    0.47268E+02    0.32298E+00   -0.29917E-08
    0.49756E+02    0.31440E+00   -0.62549E-08
    0.52244E+02    0.30396E+00   -0.13064E-07
    0.54732E+02    0.29455E+00   -0.21746E-07
    0.57220E+02    0.28301E+00   -0.29797E-07
    0.59707E+02    0.27512E+00   -0.13832E-07
    0.62195E+02    0.26406E+00   -0.73645E-09
    0.64683E+02    0.24126E+00    0.42915E-07
    0.67171E+02    0.21488E+00    0.15064E-06
    0.69659E+02    0.18610E+00    0.53616E-06
    0.72146E+02    0.17445E+00    0.17741E-05
    0.74634E+02    0.16874E+00    0.14443E-05
    0.77122E+02    0.15581E+00    0.53964E-05
    0.79610E+02    0.14639E+00    0.99935E-05
    0.82098E+02    0.13299E+00    0.18868E-04
    0.84585E+02    0.12204E+00    0.99439E-05
    0.87073E+02    0.10707E+00    0.19735E-05
    0.89561E+02    0.99263E-01   -0.17124E-04
    0.92049E+02    0.91614E-01   -0.43886E-04
    0.94537E+02    0.76235E-01   -0.21069E-03
    0.97024E+02    0.58329E-01    0.83519E-04
    0.99512E+02    0.38935E-01   -0.21834E-03
    0.10200E+03    0.70620E-02   -0.21272E-02
zone i=     42,T= "1dxhc;t= 0.3000E+03y,z:   1   1"
    0.00000E+00    0.50000E+00    0.00000E+00
    0.24878E+01    0.49389E+00    0.54239E-15
    0.49756E+01    0.48889E+00    0.27015E-14
    0.74634E+01    0.48335E+00    0.92352E-14
    0.99512E+01    0.47849E+00    0.46205E-13
    0.12439E+02    0.47417E+00    0.17980E-12
    0.14927E+02    0.46931E+00    0.54847E-12
    0.17415E+02    0.46349E+00    0.15681E-11
    0.19902E+02    0.46076E+00    0.11585E-11
    0.22390E+02    0.45485E+00    0.33044E-11
    0.24878E+02    0.45105E+00    0.42175E-11
    0.27366E+02    0.44238E+00    0.64697E-11
    0.29854E+02    0.43762E+00    0.10408E-10
    0.32341E+02    0.43195E+00    0.32276E-10
    0.34829E+02    0.42726E+00    0.85143E-10
    0.37317E+02    0.42211E+00    0.28462E-09
    0.39805E+02    0.41780E+00    0.78464E-09
    0.42293E+02    0.41408E+00    0.20389E-08
    0.44780E+02    0.40810E+00    0.48708E-08
    0.47268E+02    0.40222E+00    0.76681E-08
    0.49756E+02    0.39730E+00    0.38989E-07
    0.52244E+02    0.39332E+00    0.65107E-07
    0.54732E+02    0.38697E+00    0.18690E-06
    0.57220E+02    0.37654E+00    0.76038E-06
    0.59707E+02    0.37059E+00    0.19736E-05
    0.62195E+02    0.35416E+00    0.90527E-05
    0.64683E+02    0.34649E+00    0.25441E-04
    0.67171E+02    0.33615E+00    0.71876E-04
    0.69659E+02    0.33136E+00    0.19152E-03
    0.72146E+02    0.32325E+00    0.59283E-03
    0.74634E+02    0.31592E+00    0.22196E-02
    0.77122E+02    0.31185E+00    0.12757E-01
    0.79610E+02    0.31191E+00    0.15434E-01
    0.82098E+02    0.31496E+00    0.19851E+00
    0.84585E+02    0.32313E+00    0.38006E+00
    0.87073E+02    0.33032E+00    0.48149E+00
    0.89561E+02    0.34549E+00    0.59039E+00
    0.92049E+02    0.35241E+00    0.69557E+00
    0.94537E+02    0.36311E+00    0.80719E+00
    0.97024E+02    0.38325E+00    0.87049E+00
    0.99512E+02    0.39645E+00    0.91611E+00
    0.10200E+03    0.40012E+00    0.10000E+01
zone i=     42,T= "1dxhc;t= 0.3000E+03y,z:   1  12"
    0.00000E+00    0.50000E+00    0.00000E+00
    0.24878E+01    0.49293E+00    0.13644E-16
    0.49756E+01    0.48954E+00   -0.28463E-17
    0.74634E+01    0.48594E+00    0.60370E-16
    0.99512E+01    0.48361E+00    0.21158E-15
    0.12439E+02    0.48057E+00    0.50944E-15
    0.14927E+02    0.47562E+00    0.26916E-14
    0.17415E+02    0.47136E+00    0.76109E-14
    0.19902E+02    0.46157E+00    0.43062E-13
    0.22390E+02    0.45348E+00    0.21813E-12
    0.24878E+02    0.44594E+00    0.50912E-12
    0.27366E+02    0.43987E+00    0.14844E-11
    0.29854E+02    0.43568E+00    0.19124E-11
    0.32341E+02    0.42780E+00    0.40020E-11
    0.34829E+02    0.42270E+00    0.14695E-10
    0.37317E+02    0.41825E+00    0.15601E-09
    0.39805E+02    0.41513E+00    0.61888E-09
    0.42293E+02    0.41139E+00    0.16826E-08
    0.44780E+02    0.40673E+00    0.37508E-08
    0.47268E+02    0.40271E+00    0.67988E-08
    0.49756E+02    0.39708E+00    0.10001E-07
    0.52244E+02    0.39081E+00    0.73355E-08
    0.54732E+02    0.38348E+00    0.32016E-08
    0.57220E+02    0.37776E+00   -0.22343E-07
    0.59707E+02    0.37122E+00   -0.95749E-07
    0.62195E+02    0.36450E+00   -0.28511E-06
    0.64683E+02    0.35556E+00   -0.60806E-06
    0.67171E+02    0.34384E+00   -0.12153E-05
    0.69659E+02    0.33088E+00   -0.20272E-05
    0.72146E+02    0.32181E+00   -0.83438E-05
    0.74634E+02    0.30600E+00   -0.22760E-04
    0.77122E+02    0.29859E+00   -0.40300E-04
    0.79610E+02    0.28919E+00   -0.29086E-04
    0.82098E+02    0.28163E+00    0.45662E-04
    0.84585E+02    0.27347E+00   -0.34022E-03
    0.87073E+02    0.25755E+00   -0.25049E-02
    0.89561E+02    0.24560E+00    0.61060E-02
    0.92049E+02    0.22534E+00    0.31719E-01
    0.94537E+02    0.21193E+00    0.19991E+00
    0.97024E+02    0.20112E+00    0.33375E+00
    0.99512E+02    0.18330E+00    0.60341E+00
    0.10200E+03    0.16003E+00    0.10000E+01
zone i=     42,T= "1dxhc;t= 0.3000E+03y,z:   1  22"
    0.00000E+00    0.49835E+00   -0.46436E-16
    0.24878E+01    0.49228E+00   -0.84972E-16
    0.49756E+01    0.48170E+00   -0.32066E-15
    0.74634E+01    0.47338E+00   -0.89033E-15
    0.99512E+01    0.46061E+00   -0.28288E-14
    0.12439E+02    0.45082E+00   -0.79576E-14
    0.14927E+02    0.44116E+00   -0.15199E-13
    0.17415E+02    0.43234E+00   -0.30426E-13
    0.19902E+02    0.42874E+00   -0.33008E-13
    0.22390E+02    0.42547E+00   -0.11848E-12
    0.24878E+02    0.42077E+00   -0.75047E-12
    0.27366E+02    0.41488E+00   -0.44875E-11
    0.29854E+02    0.40785E+00   -0.25016E-10
    0.32341E+02    0.39789E+00   -0.89760E-10
    0.34829E+02    0.38375E+00   -0.32678E-09
    0.37317E+02    0.36753E+00   -0.11592E-08
    0.39805E+02    0.35533E+00   -0.23688E-08
    0.42293E+02    0.34409E+00   -0.81518E-08
    0.44780E+02    0.33333E+00   -0.18717E-07
    0.47268E+02    0.32284E+00   -0.39945E-07
    0.49756E+02    0.31426E+00   -0.65904E-07
    0.52244E+02    0.30381E+00   -0.11219E-06
    0.54732E+02    0.29440E+00   -0.15531E-06
    0.57220E+02    0.28286E+00   -0.17546E-06
    0.59707E+02    0.27496E+00   -0.78516E-07
    0.62195E+02    0.26390E+00    0.58831E-07
    0.64683E+02    0.24109E+00    0.39425E-06
    0.67171E+02    0.21471E+00    0.10235E-05
    0.69659E+02    0.18592E+00    0.26031E-05
    0.72146E+02    0.17426E+00    0.62069E-05
    0.74634E+02    0.16856E+00    0.62202E-05
    0.77122E+02    0.15562E+00    0.14428E-04
    0.79610E+02    0.14620E+00    0.25148E-04
    0.82098E+02    0.13281E+00    0.42574E-04
    0.84585E+02    0.12187E+00    0.36929E-04
    0.87073E+02    0.10691E+00    0.41820E-04
    0.89561E+02    0.99100E-01    0.34063E-04
    0.92049E+02    0.91458E-01   -0.73180E-06
    0.94537E+02    0.76098E-01   -0.99378E-04
    0.97024E+02    0.58219E-01    0.13573E-03
    0.99512E+02    0.38857E-01   -0.25062E-03
    0.10200E+03    0.70472E-02   -0.21327E-02
zone i=     42,T= "1dxhc;t= 0.4500E+03y,z:   1   1"
    0.00000E+00    0.50000E+00    0.00000E+00
    0.24878E+01    0.49392E+00    0.24439E-13
    0.49756E+01    0.48893E+00    0.10227E-12
    0.74634E+01    0.48341E+00    0.30409E-12
    0.99512E+01    0.47857E+00    0.12876E-11
    0.12439E+02    0.47427E+00    0.42379E-11
    0.14927E+02    0.46943E+00    0.11723E-10
    0.17415E+02    0.46363E+00    0.30368E-10
    0.19902E+02    0.46091E+00    0.26128E-10
    0.22390E+02    0.45502E+00    0.71492E-10
    0.24878E+02    0.45124E+00    0.93414E-10
    0.27366E+02    0.44261E+00    0.14423E-09
    0.29854E+02    0.43787E+00    0.24730E-09
    0.32341E+02    0.43223E+00    0.67264E-09
    0.34829E+02    0.42757E+00    0.16047E-08
    0.37317E+02    0.42245E+00    0.46258E-08
    0.39805E+02    0.41817E+00    0.11101E-07
    0.42293E+02    0.41448E+00    0.26146E-07
    0.44780E+02    0.40855E+00    0.57315E-07
    0.47268E+02    0.40271E+00    0.90993E-07
    0.49756E+02    0.39784E+00    0.38489E-06
    0.52244E+02    0.39391E+00    0.62830E-06
    0.54732E+02    0.38764E+00    0.15564E-05
    0.57220E+02    0.37739E+00    0.54055E-05
    0.59707E+02    0.37157E+00    0.12398E-04
    0.62195E+02    0.35564E+00    0.51937E-04
    0.64683E+02    0.34828E+00    0.14486E-03
    0.67171E+02    0.33850E+00    0.46070E-03
    0.69659E+02    0.33414E+00    0.15391E-02
    0.72146E+02    0.32729E+00    0.58936E-02
    0.74634E+02    0.32207E+00    0.27404E-01
    0.77122E+02    0.32245E+00    0.34713E-01
    0.79610E+02    0.32725E+00    0.28708E+00
    0.82098E+02    0.33223E+00    0.48547E+00
    0.84585E+02    0.34085E+00    0.58831E+00
    0.87073E+02    0.34775E+00    0.67889E+00
    0.89561E+02    0.36057E+00    0.74664E+00
    0.92049E+02    0.36601E+00    0.80238E+00
    0.94537E+02    0.37434E+00    0.86743E+00
    0.97024E+02    0.38980E+00    0.90358E+00
    0.99512E+02    0.40014E+00    0.94040E+00
    0.10200E+03    0.40012E+00    0.10000E+01
zone i=     42,T= "1dxhc;t= 0.4500E+03y,z:   1  12"
    0.00000E+00    0.50000E+00    0.00000E+00
    0.24878E+01    0.49295E+00    0.46160E-15
    0.49756E+01    0.48958E+00   -0.80637E-16
    0.74634E+01    0.48599E+00    0.21470E-14
    0.99512E+01    0.48367E+00    0.64780E-14
    0.12439E+02    0.48064E+00    0.13959E-13
    0.14927E+02    0.47571E+00    0.61561E-13
    0.17415E+02    0.47147E+00    0.14469E-12
    0.19902E+02    0.46172E+00    0.67434E-12
    0.22390E+02    0.45366E+00    0.27484E-11
    0.24878E+02    0.44616E+00    0.54859E-11
    0.27366E+02    0.44012E+00    0.13849E-10
    0.29854E+02    0.43595E+00    0.15891E-10
    0.32341E+02    0.42811E+00    0.29949E-10
    0.34829E+02    0.42303E+00    0.93867E-10
    0.37317E+02    0.41862E+00    0.77741E-09
    0.39805E+02    0.41551E+00    0.26081E-08
    0.42293E+02    0.41181E+00    0.62746E-08
    0.44780E+02    0.40718E+00    0.12582E-07
    0.47268E+02    0.40320E+00    0.19443E-07
    0.49756E+02    0.39762E+00    0.22602E-07
    0.52244E+02    0.39141E+00    0.31229E-08
    0.54732E+02    0.38416E+00   -0.42314E-07
    0.57220E+02    0.37851E+00   -0.15977E-06
    0.59707E+02    0.37207E+00   -0.45662E-06
    0.62195E+02    0.36544E+00   -0.10024E-05
    0.64683E+02    0.35664E+00   -0.21486E-05
    0.67171E+02    0.34503E+00   -0.39997E-05
    0.69659E+02    0.33207E+00   -0.65535E-05
    0.72146E+02    0.32277E+00   -0.23334E-04
    0.74634E+02    0.30594E+00   -0.56478E-04
    0.77122E+02    0.29779E+00   -0.87473E-04
    0.79610E+02    0.28706E+00   -0.19673E-04
    0.82098E+02    0.27821E+00    0.33818E-03
    0.84585E+02    0.26894E+00   -0.43578E-03
    0.87073E+02    0.25234E+00   -0.27507E-02
    0.89561E+02    0.24058E+00    0.12201E-01
    0.92049E+02    0.22124E+00    0.47771E-01
    0.94537E+02    0.20875E+00    0.22295E+00
    0.97024E+02    0.19870E+00    0.35236E+00
    0.99512E+02    0.18197E+00    0.61442E+00
    0.10200E+03    0.16003E+00    0.10000E+01
zone i=     42,T= "1dxhc;t= 0.4500E+03y,z:   1  22"
    0.00000E+00    0.49835E+00   -0.26547E-14
    0.24878E+01    0.49228E+00   -0.45739E-14
    0.49756E+01    0.48170E+00   -0.15451E-13
    0.74634E+01    0.47337E+00   -0.38389E-13
    0.99512E+01    0.46059E+00   -0.10518E-12
    0.12439E+02    0.45080E+00   -0.25567E-12
    0.14927E+02    0.44114E+00   -0.44757E-12
    0.17415E+02    0.43231E+00   -0.83377E-12
    0.19902E+02    0.42871E+00   -0.96365E-12
    0.22390E+02    0.42545E+00   -0.31410E-11
    0.24878E+02    0.42074E+00   -0.15681E-10
    0.27366E+02    0.41485E+00   -0.72675E-10
    0.29854E+02    0.40782E+00   -0.31151E-09
    0.32341E+02    0.39786E+00   -0.89539E-09
    0.34829E+02    0.38371E+00   -0.26623E-08
    0.37317E+02    0.36749E+00   -0.74628E-08
    0.39805E+02    0.35529E+00   -0.13175E-07
    0.42293E+02    0.34405E+00   -0.37796E-07
    0.44780E+02    0.33328E+00   -0.71304E-07
    0.47268E+02    0.32279E+00   -0.13294E-06
    0.49756E+02    0.31420E+00   -0.19969E-06
    0.52244E+02    0.30375E+00   -0.31326E-06
    0.54732E+02    0.29434E+00   -0.40833E-06
    0.57220E+02    0.28279E+00   -0.46010E-06
    0.59707E+02    0.27489E+00   -0.31823E-06
    0.62195E+02    0.26382E+00    0.23518E-07
    0.64683E+02    0.24100E+00    0.85425E-06
    0.67171E+02    0.21461E+00    0.20725E-05
    0.69659E+02    0.18581E+00    0.45510E-05
    0.72146E+02    0.17415E+00    0.93904E-05
    0.74634E+02    0.16844E+00    0.99688E-05
    0.77122E+02    0.15550E+00    0.19273E-04
    0.79610E+02    0.14609E+00    0.32510E-04
    0.82098E+02    0.13269E+00    0.51919E-04
    0.84585E+02    0.12176E+00    0.49297E-04
    0.87073E+02    0.10680E+00    0.55109E-04
    0.89561E+02    0.98996E-01    0.45720E-04
    0.92049E+02    0.91355E-01    0.16566E-04
    0.94537E+02    0.76001E-01   -0.80042E-04
    0.97024E+02    0.58133E-01    0.12677E-03
    0.99512E+02    0.38792E-01   -0.25582E-03
    0.10200E+03    0.70347E-02   -0.20726E-02
zone i=     42,T= "1dxhc;t= 0.6000E+03y,z:   1   1"
    0.00000E+00    0.50000E+00    0.00000E+00
    0.24878E+01    0.49394E+00    0.31003E-12
    0.49756E+01    0.48897E+00    0.11433E-11
    0.74634E+01    0.48347E+00    0.30847E-11
    0.99512E+01    0.47865E+00    0.11498E-10
    0.12439E+02    0.47436E+00    0.33397E-10
    0.14927E+02    0.46953E+00    0.85989E-10
    0.17415E+02    0.46375E+00    0.20748E-09
    0.19902E+02    0.46105E+00    0.19805E-09
    0.22390E+02    0.45518E+00    0.53497E-09
    0.24878E+02    0.45142E+00    0.70941E-09
    0.27366E+02    0.44282E+00    0.11211E-08
    0.29854E+02    0.43810E+00    0.19980E-08
    0.32341E+02    0.43249E+00    0.49828E-08
    0.34829E+02    0.42785E+00    0.11147E-07
    0.37317E+02    0.42275E+00    0.29026E-07
    0.39805E+02    0.41850E+00    0.63668E-07
    0.42293E+02    0.41483E+00    0.14103E-06
    0.44780E+02    0.40893E+00    0.29419E-06
    0.47268E+02    0.40314E+00    0.47506E-06
    0.49756E+02    0.39830E+00    0.17810E-05
    0.52244E+02    0.39441E+00    0.29508E-05
    0.54732E+02    0.38821E+00    0.68051E-05
    0.57220E+02    0.37809E+00    0.21411E-04
    0.59707E+02    0.37238E+00    0.44796E-04
    0.62195E+02    0.35682E+00    0.16729E-03
    0.64683E+02    0.34971E+00    0.43666E-03
    0.67171E+02    0.34039E+00    0.14472E-02
    0.69659E+02    0.33643E+00    0.51183E-02
    0.72146E+02    0.33075E+00    0.18902E-01
    0.74634E+02    0.32891E+00   -0.19757E-01
    0.77122E+02    0.33363E+00    0.27423E+00
    0.79610E+02    0.33942E+00    0.49328E+00
    0.82098E+02    0.34415E+00    0.60116E+00
    0.84585E+02    0.35229E+00    0.69394E+00
    0.87073E+02    0.35849E+00    0.77217E+00
    0.89561E+02    0.36948E+00    0.82142E+00
    0.92049E+02    0.37398E+00    0.85857E+00
    0.94537E+02    0.38085E+00    0.89911E+00
    0.97024E+02    0.39356E+00    0.92249E+00
    0.99512E+02    0.40226E+00    0.95640E+00
    0.10200E+03    0.40012E+00    0.10000E+01
zone i=     42,T= "1dxhc;t= 0.6000E+03y,z:   1  12"
    0.00000E+00    0.50000E+00    0.00000E+00
    0.24878E+01    0.49297E+00    0.50572E-14
    0.49756E+01    0.48962E+00   -0.58920E-15
    0.74634E+01    0.48604E+00    0.23640E-13
    0.99512E+01    0.48372E+00    0.64485E-13
    0.12439E+02    0.48071E+00    0.12842E-12
    0.14927E+02    0.47580E+00    0.49492E-12
    0.17415E+02    0.47156E+00    0.10272E-11
    0.19902E+02    0.46185E+00    0.41585E-11
    0.22390E+02    0.45383E+00    0.14517E-10
    0.24878E+02    0.44635E+00    0.26423E-10
    0.27366E+02    0.44034E+00    0.60970E-10
    0.29854E+02    0.43619E+00    0.66876E-10
    0.32341E+02    0.42838E+00    0.11691E-09
    0.34829E+02    0.42333E+00    0.32738E-09
    0.37317E+02    0.41895E+00    0.23222E-08
    0.39805E+02    0.41586E+00    0.71922E-08
    0.42293E+02    0.41217E+00    0.16629E-07
    0.44780E+02    0.40758E+00    0.32618E-07
    0.47268E+02    0.40363E+00    0.50659E-07
    0.49756E+02    0.39808E+00    0.62354E-07
    0.52244E+02    0.39192E+00    0.22902E-07
    0.54732E+02    0.38473E+00   -0.65476E-07
    0.57220E+02    0.37913E+00   -0.29380E-06
    0.59707E+02    0.37274E+00   -0.81288E-06
    0.62195E+02    0.36618E+00   -0.18444E-05
    0.64683E+02    0.35743E+00   -0.43561E-05
    0.67171E+02    0.34584E+00   -0.76321E-05
    0.69659E+02    0.33274E+00   -0.13651E-04
    0.72146E+02    0.32314E+00   -0.42417E-04
    0.74634E+02    0.30528E+00   -0.86828E-04
    0.77122E+02    0.29648E+00   -0.11445E-03
    0.79610E+02    0.28479E+00    0.66033E-04
    0.82098E+02    0.27529E+00    0.77447E-03
    0.84585E+02    0.26562E+00   -0.46840E-03
    0.87073E+02    0.24897E+00   -0.23234E-02
    0.89561E+02    0.23743E+00    0.17407E-01
    0.92049E+02    0.21865E+00    0.59622E-01
    0.94537E+02    0.20670E+00    0.23960E+00
    0.97024E+02    0.19711E+00    0.36609E+00
    0.99512E+02    0.18109E+00    0.62264E+00
    0.10200E+03    0.16003E+00    0.10000E+01
zone i=     42,T= "1dxhc;t= 0.6000E+03y,z:   1  22"
    0.00000E+00    0.49835E+00   -0.38942E-13
    0.24878E+01    0.49228E+00   -0.62396E-13
    0.49756E+01    0.48169E+00   -0.19579E-12
    0.74634E+01    0.47337E+00   -0.44913E-12
    0.99512E+01    0.46058E+00   -0.11020E-11
    0.12439E+02    0.45079E+00   -0.24068E-11
    0.14927E+02    0.44112E+00   -0.40061E-11
    0.17415E+02    0.43229E+00   -0.71621E-11
    0.19902E+02    0.42869E+00   -0.88776E-11
    0.22390E+02    0.42543E+00   -0.26499E-10
    0.24878E+02    0.42072E+00   -0.10950E-09
    0.27366E+02    0.41483E+00   -0.41764E-09
    0.29854E+02    0.40780E+00   -0.14675E-08
    0.32341E+02    0.39784E+00   -0.36086E-08
    0.34829E+02    0.38369E+00   -0.93064E-08
    0.37317E+02    0.36746E+00   -0.22115E-07
    0.39805E+02    0.35526E+00   -0.35817E-07
    0.42293E+02    0.34401E+00   -0.90494E-07
    0.44780E+02    0.33324E+00   -0.15128E-06
    0.47268E+02    0.32275E+00   -0.25981E-06
    0.49756E+02    0.31416E+00   -0.37555E-06
    0.52244E+02    0.30370E+00   -0.56693E-06
    0.54732E+02    0.29428E+00   -0.72418E-06
    0.57220E+02    0.28273E+00   -0.83977E-06
    0.59707E+02    0.27483E+00   -0.72275E-06
    0.62195E+02    0.26376E+00   -0.23717E-06
    0.64683E+02    0.24093E+00    0.10085E-05
    0.67171E+02    0.21452E+00    0.26039E-05
    0.69659E+02    0.18571E+00    0.53878E-05
    0.72146E+02    0.17404E+00    0.10363E-04
    0.74634E+02    0.16834E+00    0.11174E-04
    0.77122E+02    0.15540E+00    0.20371E-04
    0.79610E+02    0.14598E+00    0.33633E-04
    0.82098E+02    0.13259E+00    0.52166E-04
    0.84585E+02    0.12166E+00    0.50330E-04
    0.87073E+02    0.10671E+00    0.54081E-04
    0.89561E+02    0.98907E-01    0.42451E-04
    0.92049E+02    0.91269E-01    0.15541E-04
    0.94537E+02    0.75922E-01   -0.82865E-04
    0.97024E+02    0.58063E-01    0.11678E-03
    0.99512E+02    0.38740E-01   -0.25417E-03
    0.10200E+03    0.70249E-02   -0.20311E-02
zone i=     42,T= "1dxhc;t= 0.7500E+03y,z:   1   1"
    0.00000E+00    0.50000E+00    0.00000E+00
    0.24878E+01    0.49395E+00    0.18944E-11
    0.49756E+01    0.48899E+00    0.63632E-11
    0.74634E+01    0.48351E+00    0.16018E-10
    0.99512E+01    0.47870E+00    0.54035E-10
    0.12439E+02    0.47443E+00    0.14265E-09
    0.14927E+02    0.46962E+00    0.34746E-09
    0.17415E+02    0.46385E+00    0.79501E-09
    0.19902E+02    0.46116E+00    0.81888E-09
    0.22390E+02    0.45531E+00    0.22102E-08
    0.24878E+02    0.45155E+00    0.29656E-08
    0.27366E+02    0.44299E+00    0.48159E-08
    0.29854E+02    0.43829E+00    0.88005E-08
    0.32341E+02    0.43269E+00    0.20718E-07
    0.34829E+02    0.42807E+00    0.44428E-07
    0.37317E+02    0.42299E+00    0.10772E-06
    0.39805E+02    0.41876E+00    0.22238E-06
    0.42293E+02    0.41511E+00    0.47300E-06
    0.44780E+02    0.40924E+00    0.95634E-06
    0.47268E+02    0.40348E+00    0.15677E-05
    0.49756E+02    0.39867E+00    0.54201E-05
    0.52244E+02    0.39480E+00    0.91854E-05
    0.54732E+02    0.38866E+00    0.20841E-04
    0.57220E+02    0.37864E+00    0.64867E-04
    0.59707E+02    0.37301E+00    0.13875E-03
    0.62195E+02    0.35776E+00    0.51754E-03
    0.64683E+02    0.35085E+00    0.13009E-02
    0.67171E+02    0.34194E+00    0.40722E-02
    0.69659E+02    0.33832E+00    0.11856E-01
    0.72146E+02    0.33467E+00    0.29485E-01
    0.74634E+02    0.33635E+00    0.14724E+00
    0.77122E+02    0.34233E+00    0.36654E+00
    0.79610E+02    0.34810E+00    0.57703E+00
    0.82098E+02    0.35263E+00    0.68733E+00
    0.84585E+02    0.36007E+00    0.76300E+00
    0.87073E+02    0.36564E+00    0.82648E+00
    0.89561E+02    0.37527E+00    0.86422E+00
    0.92049E+02    0.37914E+00    0.89242E+00
    0.94537E+02    0.38503E+00    0.91957E+00
    0.97024E+02    0.39593E+00    0.93590E+00
    0.99512E+02    0.40358E+00    0.96760E+00
    0.10200E+03    0.40012E+00    0.10000E+01
zone i=     42,T= "1dxhc;t= 0.7500E+03y,z:   1  12"
    0.00000E+00    0.50000E+00    0.00000E+00
    0.24878E+01    0.49299E+00    0.29661E-13
    0.49756E+01    0.48964E+00   -0.63132E-15
    0.74634E+01    0.48608E+00    0.13462E-12
    0.99512E+01    0.48377E+00    0.34441E-12
    0.12439E+02    0.48076E+00    0.64580E-12
    0.14927E+02    0.47586E+00    0.22543E-11
    0.17415E+02    0.47164E+00    0.43049E-11
    0.19902E+02    0.46196E+00    0.15711E-10
    0.22390E+02    0.45396E+00    0.49260E-10
    0.24878E+02    0.44651E+00    0.85275E-10
    0.27366E+02    0.44052E+00    0.18658E-09
    0.29854E+02    0.43638E+00    0.20329E-09
    0.32341E+02    0.42860E+00    0.33711E-09
    0.34829E+02    0.42357E+00    0.87436E-09
    0.37317E+02    0.41920E+00    0.57429E-08
    0.39805E+02    0.41613E+00    0.17219E-07
    0.42293E+02    0.41246E+00    0.39840E-07
    0.44780E+02    0.40789E+00    0.79463E-07
    0.47268E+02    0.40396E+00    0.13218E-06
    0.49756E+02    0.39844E+00    0.18688E-06
    0.52244E+02    0.39231E+00    0.14797E-06
    0.54732E+02    0.38517E+00    0.92805E-07
    0.57220E+02    0.37959E+00   -0.17230E-06
    0.59707E+02    0.37325E+00   -0.68413E-06
    0.62195E+02    0.36671E+00   -0.21831E-05
    0.64683E+02    0.35798E+00   -0.63634E-05
    0.67171E+02    0.34635E+00   -0.11033E-04
    0.69659E+02    0.33306E+00   -0.22256E-04
    0.72146E+02    0.32316E+00   -0.60223E-04
    0.74634E+02    0.30444E+00   -0.10263E-03
    0.77122E+02    0.29517E+00   -0.11910E-03
    0.79610E+02    0.28290E+00    0.20821E-03
    0.82098E+02    0.27311E+00    0.12037E-02
    0.84585E+02    0.26335E+00   -0.44768E-03
    0.87073E+02    0.24679E+00   -0.15502E-02
    0.89561E+02    0.23539E+00    0.21953E-01
    0.92049E+02    0.21694E+00    0.68782E-01
    0.94537E+02    0.20532E+00    0.25159E+00
    0.97024E+02    0.19603E+00    0.37592E+00
    0.99512E+02    0.18049E+00    0.62862E+00
    0.10200E+03    0.16003E+00    0.10000E+01
zone i=     42,T= "1dxhc;t= 0.7500E+03y,z:   1  22"
    0.00000E+00    0.49834E+00   -0.25756E-12
    0.24878E+01    0.49227E+00   -0.38424E-12
    0.49756E+01    0.48169E+00   -0.11471E-11
    0.74634E+01    0.47336E+00   -0.24835E-11
    0.99512E+01    0.46057E+00   -0.56079E-11
    0.12439E+02    0.45078E+00   -0.11315E-10
    0.14927E+02    0.44111E+00   -0.18306E-10
    0.17415E+02    0.43228E+00   -0.32031E-10
    0.19902E+02    0.42868E+00   -0.42186E-10
    0.22390E+02    0.42541E+00   -0.11711E-09
    0.24878E+02    0.42071E+00   -0.41587E-09
    0.27366E+02    0.41481E+00   -0.13627E-08
    0.29854E+02    0.40778E+00   -0.41071E-08
    0.32341E+02    0.39782E+00   -0.90162E-08
    0.34829E+02    0.38366E+00   -0.20939E-07
    0.37317E+02    0.36744E+00   -0.44137E-07
    0.39805E+02    0.35523E+00   -0.67632E-07
    0.42293E+02    0.34398E+00   -0.15567E-06
    0.44780E+02    0.33321E+00   -0.24032E-06
    0.47268E+02    0.32271E+00   -0.39101E-06
    0.49756E+02    0.31412E+00   -0.55479E-06
    0.52244E+02    0.30366E+00   -0.81985E-06
    0.54732E+02    0.29424E+00   -0.10398E-05
    0.57220E+02    0.28268E+00   -0.12359E-05
    0.59707E+02    0.27477E+00   -0.11844E-05
    0.62195E+02    0.26370E+00   -0.65839E-06
    0.64683E+02    0.24086E+00    0.79051E-06
    0.67171E+02    0.21444E+00    0.25294E-05
    0.69659E+02    0.18562E+00    0.52766E-05
    0.72146E+02    0.17395E+00    0.99514E-05
    0.74634E+02    0.16824E+00    0.10751E-04
    0.77122E+02    0.15530E+00    0.19490E-04
    0.79610E+02    0.14589E+00    0.32117E-04
    0.82098E+02    0.13250E+00    0.49299E-04
    0.84585E+02    0.12157E+00    0.47256E-04
    0.87073E+02    0.10663E+00    0.49160E-04
    0.89561E+02    0.98833E-01    0.36307E-04
    0.92049E+02    0.91197E-01    0.10390E-04
    0.94537E+02    0.75856E-01   -0.89137E-04
    0.97024E+02    0.58008E-01    0.11009E-03
    0.99512E+02    0.38700E-01   -0.25060E-03
    0.10200E+03    0.70173E-02   -0.20023E-02
zone i=     42,T= "1dxhc;t= 0.9000E+03y,z:   1   1"
    0.00000E+00    0.50000E+00    0.00000E+00
    0.24878E+01    0.49396E+00    0.72979E-11
    0.49756E+01    0.48902E+00    0.22868E-10