          Title="3D head and conc at t=   0.2500E+04 days"
          variables="x","y","z","head","conc"
          zone i=      22, j=      42, k=      42, T="3D"
  0.00000000E+00  0.00000000E+00  0.00000000E+00  0.50000000E+00  0.00000000E+00
  0.00000000E+00  0.00000000E+00  0.97611237E+00  0.50000000E+00  0.00000000E+00
  0.00000000E+00  0.00000000E+00  0.19522247E+01  0.50000000E+00  0.00000000E+00
  0.00000000E+00  0.00000000E+00  0.29283371E+01  0.50000000E+00  0.00000000E+00
  0.00000000E+00  0.00000000E+00  0.39044495E+01  0.50000000E+00  0.00000000E+00
  0.00000000E+00  0.00000000E+00  0.48805618E+01  0.50000000E+00  0.00000000E+00
  0.00000000E+00  0.00000000E+00  0.58566742E+01  0.50000000E+00  0.00000000E+00
  0.00000000E+00  0.00000000E+00  0.68327866E+01  0.50000000E+00  0.00000000E+00
  0.00000000E+00  0.00000000E+00  0.78088990E+01  0.50000000E+00  0.00000000E+00
  0.00000000E+00  0.00000000E+00  0.87850113E+01  0.50000000E+00  0.00000000E+00
  0.00000000E+00  0.00000000E+00  0.97611237E+01  0.50000000E+00  0.00000000E+00
  0.00000000E+00  0.00000000E+00  0.10737236E+02  0.50000000E+00  0.00000000E+00
  0.00000000E+00  0.00000000E+00  0.11713348E+02  0.50000000E+00  0.00000000E+00
  0.00000000E+00  0.00000000E+00  0.12689461E+02  0.50000000E+00  0.00000000E+00
  0.00000000E+00  0.00000000E+00  0.13665573E+02  0.50000000E+00  0.00000000E+00
  0.00000000E+00  0.00000000E+00  0.14641686E+02  0.50000000E+00  0.00000000E+00
  0.00000000E+00  0.00000000E+00  0.15617798E+02  0.50000000E+00  0.00000000E+00
  0.00000000E+00  0.00000000E+00  0.16593910E+02  0.50000000E+00  0.00000000E+00
  0.00000000E+00  0.00000000E+00  0.17570023E+02  0.50000000E+00  0.00000000E+00
  0.00000000E+00  0.00000000E+00  0.18546135E+02  0.50000000E+00  0.00000000E+00
  0.00000000E+00  0.00000000E+00  0.19522247E+02  0.50000000E+00  0.00000000E+00
  0.00000000E+00  0.00000000E+00  0.20498360E+02  0.49833960E+00 -0.89262741E-10
  0.00000000E+00  0.24878049E+01  0.00000000E+00  0.50000000E+00  0.00000000E+00
  0.00000000E+00  0.24878049E+01  0.97611393E+00  0.50000000E+00  0.00000000E+00
  0.00000000E+00  0.24878049E+01  0.19522279E+01  0.50000000E+00  0.00000000E+00
  0.00000000E+00  0.24878049E+01  0.29283418E+01  0.50000000E+00  0.00000000E+00
  0.00000000E+00  0.24878049E+01  0.39044557E+01  0.50000000E+00  0.00000000E+00
  0.00000000E+00  0.24878049E+01  0.48805696E+01  0.50000000E+00  0.00000000E+00
  0.00000000E+00  0.24878049E+01  0.58566836E+01  0.50000000E+00  0.00000000E+00
  0.00000000E+00  0.24878049E+01  0.68327975E+01  0.50000000E+00  0.00000000E+00
  0.00000000E+00  0.24878049E+01  0.78089114E+01  0.50000000E+00  0.00000000E+00
  0.00000000E+00  0.24878049E+01  0.87850254E+01  0.50000000E+00  0.00000000E+00
  0.00000000E+00  0.24878049E+01  0.97611393E+01  0.50000000E+00  0.00000000E+00
  0.00000000E+00  0.24878049E+01  0.10737253E+02  0.50000000E+00  0.00000000E+00
  0.00000000E+00  0.24878049E+01  0.11713367E+02  0.50000000E+00  0.00000000E+00
  0.00000000E+00  0.24878049E+01  0.12689481E+02  0.50000000E+00  0.00000000E+00
  0.00000000E+00  0.24878049E+01  0.13665595E+02  0.50000000E+00  0.00000000E+00
  0.00000000E+00  0.24878049E+01  0.14641709E+02  0.50000000E+00  0.00000000E+00
  0.00000000E+00  0.24878049E+01  0.15617823E+02  0.50000000E+00  0.00000000E+00
  0.00000000E+00  0.24878049E+01  0.16593937E+02  0.50000000E+00  0.00000000E+00
  0.00000000E+00  0.24878049E+01  0.17570051E+02  0.50000000E+00  0.00000000E+00
  0.00000000E+00  0.24878049E+01  0.18546165E+02  0.50000000E+00  0.00000000E+00
  0.00000000E+00  0.24878049E+01  0.19522279E+02  0.50000000E+00  0.00000000E+00
  0.00000000E+00  0.24878049E+01  0.20498393E+02  0.49837377E+00 -0.85864252E-10
  0.00000000E+00  0.49756098E+01  0.00000000E+00  0.50000000E+00  0.00000000E+00
  0.00000000E+00  0.49756098E+01  0.97612111E+00  0.50000000E+00  0.00000000E+00
  0.00000000E+00  0.49756098E+01  0.19522422E+01  0.50000000E+00  0.00000000E+00
  0.00000000E+00  0.49756098E+01  0.29283633E+01  0.50000000E+00  0.00000000E+00
  0.00000000E+00  0.49756098E+01  0.39044844E+01  0.50000000E+00  0.00000000E+00
  0.00000000E+00  0.49756098E+01  0.48806055E+01  0.50000000E+00  0.00000000E+00
  0.00000000E+00  0.49756098E+01  0.58567267E+01  0.50000000E+00  0.00000000E+00
  0.00000000E+00  0.49756098E+01  0.68328478E+01  0.50000000E+00  0.00000000E+00
  0.00000000E+00  0.49756098E+01  0.78089689E+01  0.50000000E+00  0.00000000E+00
  0.00000000E+00  0.49756098E+01  0.87850900E+01  0.50000000E+00  0.00000000E+00
  0.00000000E+00  0.49756098E+01  0.97612111E+01  0.50000000E+00  0.00000000E+00
  0.00000000E+00  0.49756098E+01  0.10737332E+02  0.50000000E+00  0.00000000E+00
  0.00000000E+00  0.49756098E+01  0.11713453E+02  0.50000000E+00  0.00000000E+00
  0.00000000E+00  0.49756098E+01  0.12689574E+02  0.50000000E+00  0.00000000E+00
  0.00000000E+00  0.49756098E+01  0.13665696E+02  0.50000000E+00  0.00000000E+00
  0.00000000E+00  0.49756098E+01  0.14641817E+02  0.50000000E+00  0.00000000E+00
  0.00000000E+00  0.49756098E+01  0.15617938E+02  0.50000000E+00  0.00000000E+00
  0.00000000E+00  0.49756098E+01  0.16594059E+02  0.50000000E+00  0.00000000E+00
  0.00000000E+00  0.49756098E+01  0.17570180E+02  0.50000000E+00  0.00000000E+00
  0.00000000E+00  0.49756098E+01  0.18546301E+02  0.50000000E+00  0.00000000E+00
  0.00000000E+00  0.49756098E+01  0.19522422E+02  0.50000000E+00  0.00000000E+00
  0.00000000E+00  0.49756098E+01  0.20498543E+02  0.49852640E+00 -0.77340368E-10
  0.00000000E+00  0.74634146E+01  0.00000000E+00  0.50000000E+00  0.00000000E+00
  0.00000000E+00  0.74634146E+01  0.97613291E+00  0.50000000E+00  0.00000000E+00
  0.00000000E+00  0.74634146E+01  0.19522658E+01  0.50000000E+00  0.00000000E+00
  0.00000000E+00  0.74634146E+01  0.29283987E+01  0.50000000E+00  0.00000000E+00
  0.00000000E+00  0.74634146E+01  0.39045316E+01  0.50000000E+00  0.00000000E+00
  0.00000000E+00  0.74634146E+01  0.48806646E+01  0.50000000E+00  0.00000000E+00
  0.00000000E+00  0.74634146E+01  0.58567975E+01  0.50000000E+00  0.00000000E+00
  0.00000000E+00  0.74634146E+01  0.68329304E+01  0.50000000E+00  0.00000000E+00
  0.00000000E+00  0.74634146E+01  0.78090633E+01  0.50000000E+00  0.00000000E+00
  0.00000000E+00  0.74634146E+01  0.87851962E+01  0.50000000E+00  0.00000000E+00
  0.00000000E+00  0.74634146E+01  0.97613291E+01  0.50000000E+00  0.00000000E+00
  0.00000000E+00  0.74634146E+01  0.10737462E+02  0.50000000E+00  0.00000000E+00
  0.00000000E+00  0.74634146E+01  0.11713595E+02  0.50000000E+00  0.00000000E+00
  0.00000000E+00  0.74634146E+01  0.12689728E+02  0.50000000E+00  0.00000000E+00
  0.00000000E+00  0.74634146E+01  0.13665861E+02  0.50000000E+00  0.00000000E+00
  0.00000000E+00  0.74634146E+01  0.14641994E+02  0.50000000E+00  0.00000000E+00
  0.00000000E+00  0.74634146E+01  0.15618127E+02  0.50000000E+00  0.00000000E+00
  0.00000000E+00  0.74634146E+01  0.16594259E+02  0.50000000E+00  0.00000000E+00
  0.00000000E+00  0.74634146E+01  0.17570392E+02  0.50000000E+00  0.00000000E+00
  0.00000000E+00  0.74634146E+01  0.18546525E+02  0.50000000E+00  0.00000000E+00
  0.00000000E+00  0.74634146E+01  0.19522658E+02  0.50000000E+00  0.00000000E+00
  0.00000000E+00  0.74634146E+01  0.20498791E+02  0.49877706E+00 -0.74636517E-10
  0.00000000E+00  0.99512195E+01  0.00000000E+00  0.50000000E+00  0.00000000E+00
  0.00000000E+00  0.99512195E+01  0.97613183E+00  0.50000000E+00  0.00000000E+00
  0.00000000E+00  0.99512195E+01  0.19522637E+01  0.50000000E+00  0.00000000E+00
  0.00000000E+00  0.99512195E+01  0.29283955E+01  0.50000000E+00  0.00000000E+00
  0.00000000E+00  0.99512195E+01  0.39045273E+01  0.50000000E+00  0.00000000E+00
  0.00000000E+00  0.99512195E+01  0.48806592E+01  0.50000000E+00  0.00000000E+00
  0.00000000E+00  0.99512195E+01  0.58567910E+01  0.50000000E+00  0.00000000E+00
  0.00000000E+00  0.99512195E+01  0.68329228E+01  0.50000000E+00  0.00000000E+00
  0.00000000E+00  0.99512195E+01  0.78090547E+01  0.50000000E+00  0.00000000E+00
  0.00000000E+00  0.99512195E+01  0.87851865E+01  0.50000000E+00  0.00000000E+00
  0.00000000E+00  0.99512195E+01  0.97613183E+01  0.50000000E+00  0.00000000E+00
  0.00000000E+00  0.99512195E+01  0.10737450E+02  0.50000000E+00  0.00000000E+00
  0.00000000E+00  0.99512195E+01  0.11713582E+02  0.50000000E+00  0.00000000E+00
  0.00000000E+00  0.99512195E+01  0.12689714E+02  0.50000000E+00  0.00000000E+00
  0.00000000E+00  0.99512195E+01  0.13665846E+02  0.50000000E+00  0.00000000E+00
  0.00000000E+00  0.99512195E+01  0.14641977E+02  0.50000000E+00  0.00000000E+00
  0.00000000E+00  0.99512195E+01  0.15618109E+02  0.50000000E+00  0.00000000E+00
  0.00000000E+00  0.99512195E+01  0.16594241E+02  0.50000000E+00  0.00000000E+00
  0.00000000E+00  0.99512195E+01  0.17570373E+02  0.50000000E+00  0.00000000E+00
  0.00000000E+00  0.99512195E+01  0.18546505E+02  0.50000000E+00  0.00000000E+00
  0.00000000E+00  0.99512195E+01  0.19522637E+02  0.50000000E+00  0.00000000E+00
  0.00000000E+00  0.99512195E+01  0.20498768E+02  0.49875451E+00 -0.79890021E-10
  0.00000000E+00  0.12439024E+02  0.00000000E+00  0.50000000E+00  0.00000000E+00
  0.00000000E+00  0.12439024E+02  0.97613082E+00  0.50000000E+00  0.00000000E+00
  0.00000000E+00  0.12439024E+02  0.19522616E+01  0.50000000E+00  0.00000000E+00
  0.00000000E+00  0.12439024E+02  0.29283924E+01  0.50000000E+00  0.00000000E+00
  0.00000000E+00  0.12439024E+02  0.39045233E+01  0.50000000E+00  0.00000000E+00
  0.00000000E+00  0.12439024E+02  0.48806541E+01  0.50000000E+00  0.00000000E+00
  0.00000000E+00  0.12439024E+02  0.58567849E+01  0.50000000E+00  0.00000000E+00
  0.00000000E+00  0.12439024E+02  0.68329157E+01  0.50000000E+00  0.00000000E+00
  0.00000000E+00  0.12439024E+02  0.78090465E+01  0.50000000E+00  0.00000000E+00
  0.00000000E+00  0.12439024E+02  0.87851773E+01  0.50000000E+00  0.00000000E+00
  0.00000000E+00  0.12439024E+02  0.97613082E+01  0.50000000E+00  0.00000000E+00
  0.00000000E+00  0.12439024E+02  0.10737439E+02  0.50000000E+00  0.00000000E+00
  0.00000000E+00  0.12439024E+02  0.11713570E+02  0.50000000E+00  0.00000000E+00
  0.00000000E+00  0.12439024E+02  0.12689701E+02  0.50000000E+00  0.00000000E+00
  0.00000000E+00  0.12439024E+02  0.13665831E+02  0.50000000E+00  0.00000000E+00
  0.00000000E+00  0.12439024E+02  0.14641962E+02  0.50000000E+00  0.00000000E+00
  0.00000000E+00  0.12439024E+02  0.15618093E+02  0.50000000E+00  0.00000000E+00
  0.00000000E+00  0.12439024E+02  0.16594224E+02  0.50000000E+00  0.00000000E+00
  0.00000000E+00  0.12439024E+02  0.17570355E+02  0.50000000E+00  0.00000000E+00
  0.00000000E+00  0.12439024E+02  0.18546486E+02  0.50000000E+00  0.00000000E+00
  0.00000000E+00  0.12439024E+02  0.19522616E+02  0.50000000E+00  0.00000000E+00
  0.00000000E+00  0.12439024E+02  0.20498747E+02  0.49873264E+00 -0.73632968E-10
  0.00000000E+00  0.14926829E+02  0.00000000E+00  0.50000000E+00  0.00000000E+00
  0.00000000E+00  0.14926829E+02  0.97612960E+00  0.50000000E+00  0.00000000E+00
  0.00000000E+00  0.14926829E+02  0.19522592E+01  0.50000000E+00  0.00000000E+00
  0.00000000E+00  0.14926829E+02  0.29283888E+01  0.50000000E+00  0.00000000E+00
  0.00000000E+00  0.14926829E+02  0.39045184E+01  0.50000000E+00  0.00000000E+00
  0.00000000E+00  0.14926829E+02  0.48806480E+01  0.50000000E+00  0.00000000E+00
  0.00000000E+00  0.14926829E+02  0.58567776E+01  0.50000000E+00  0.00000000E+00
  0.00000000E+00  0.14926829E+02  0.68329072E+01  0.50000000E+00  0.00000000E+00
  0.00000000E+00  0.14926829E+02  0.78090368E+01  0.50000000E+00  0.00000000E+00
  0.00000000E+00  0.14926829E+02  0.87851664E+01  0.50000000E+00  0.00000000E+00
  0.00000000E+00  0.14926829E+02  0.97612960E+01  0.50000000E+00  0.00000000E+00
  0.00000000E+00  0.14926829E+02  0.10737426E+02  0.50000000E+00  0.00000000E+00
  0.00000000E+00  0.14926829E+02  0.11713555E+02  0.50000000E+00  0.00000000E+00
  0.00000000E+00  0.14926829E+02  0.12689685E+02  0.50000000E+00  0.00000000E+00
  0.00000000E+00  0.14926829E+02  0.13665814E+02  0.50000000E+00  0.00000000E+00
  0.00000000E+00  0.14926829E+02  0.14641944E+02  0.50000000E+00  0.00000000E+00
  0.00000000E+00  0.14926829E+02  0.15618074E+02  0.50000000E+00  0.00000000E+00
  0.00000000E+00  0.14926829E+02  0.16594203E+02  0.50000000E+00  0.00000000E+00
  0.00000000E+00  0.14926829E+02  0.17570333E+02  0.50000000E+00  0.00000000E+00
  0.00000000E+00  0.14926829E+02  0.18546462E+02  0.50000000E+00  0.00000000E+00
  0.00000000E+00  0.14926829E+02  0.19522592E+02  0.50000000E+00  0.00000000E+00
  0.00000000E+00  0.14926829E+02  0.20498722E+02  0.49870547E+00 -0.87633634E-10
  0.00000000E+00  0.17414634E+02  0.00000000E+00  0.50000000E+00  0.00000000E+00
  0.00000000E+00  0.17414634E+02  0.97613407E+00  0.50000000E+00  0.00000000E+00
  0.00000000E+00  0.17414634E+02  0.19522681E+01  0.50000000E+00  0.00000000E+00
  0.00000000E+00  0.17414634E+02  0.29284022E+01  0.50000000E+00  0.00000000E+00
  0.00000000E+00  0.17414634E+02  0.39045363E+01  0.50000000E+00  0.00000000E+00
  0.00000000E+00  0.17414634E+02  0.48806703E+01  0.50000000E+00  0.00000000E+00
  0.00000000E+00  0.17414634E+02  0.58568044E+01  0.50000000E+00  0.00000000E+00
  0.00000000E+00  0.17414634E+02  0.68329385E+01  0.50000000E+00  0.00000000E+00
  0.00000000E+00  0.17414634E+02  0.78090725E+01  0.50000000E+00  0.00000000E+00
  0.00000000E+00  0.17414634E+02  0.87852066E+01  0.50000000E+00  0.00000000E+00
  0.00000000E+00  0.17414634E+02  0.97613407E+01  0.50000000E+00  0.00000000E+00
  0.00000000E+00  0.17414634E+02  0.10737475E+02  0.50000000E+00  0.00000000E+00
  0.00000000E+00  0.17414634E+02  0.11713609E+02  0.50000000E+00  0.00000000E+00
  0.00000000E+00  0.17414634E+02  0.12689743E+02  0.50000000E+00  0.00000000E+00
  0.00000000E+00  0.17414634E+02  0.13665877E+02  0.50000000E+00  0.00000000E+00
  0.00000000E+00  0.17414634E+02  0.14642011E+02  0.50000000E+00  0.00000000E+00
  0.00000000E+00  0.17414634E+02  0.15618145E+02  0.50000000E+00  0.00000000E+00
  0.00000000E+00  0.17414634E+02  0.16594279E+02  0.50000000E+00  0.00000000E+00
  0.00000000E+00  0.17414634E+02  0.17570413E+02  0.50000000E+00  0.00000000E+00
  0.00000000E+00  0.17414634E+02  0.18546547E+02  0.50000000E+00  0.00000000E+00
  0.00000000E+00  0.17414634E+02  0.19522681E+02  0.50000000E+00  0.00000000E+00
  0.00000000E+00  0.17414634E+02  0.20498815E+02  0.49879914E+00 -0.10885243E-09
  0.00000000E+00  0.19902439E+02  0.00000000E+00  0.50000000E+00  0.00000000E+00
  0.00000000E+00  0.19902439E+02  0.97612933E+00  0.50000000E+00  0.00000000E+00
  0.00000000E+00  0.19902439E+02  0.19522587E+01  0.50000000E+00  0.00000000E+00
  0.00000000E+00  0.19902439E+02  0.29283880E+01  0.50000000E+00  0.00000000E+00
  0.00000000E+00  0.19902439E+02  0.39045173E+01  0.50000000E+00  0.00000000E+00
  0.00000000E+00  0.19902439E+02  0.48806466E+01  0.50000000E+00  0.00000000E+00
  0.00000000E+00  0.19902439E+02  0.58567760E+01  0.50000000E+00  0.00000000E+00
  0.00000000E+00  0.19902439E+02  0.68329053E+01  0.50000000E+00  0.00000000E+00
  0.00000000E+00  0.19902439E+02  0.78090346E+01  0.50000000E+00  0.00000000E+00
  0.00000000E+00  0.19902439E+02  0.87851640E+01  0.50000000E+00  0.00000000E+00
  0.00000000E+00  0.19902439E+02  0.97612933E+01  0.50000000E+00  0.00000000E+00
  0.00000000E+00  0.19902439E+02  0.10737423E+02  0.50000000E+00  0.00000000E+00
  0.00000000E+00  0.19902439E+02  0.11713552E+02  0.50000000E+00  0.00000000E+00
  0.00000000E+00  0.19902439E+02  0.12689681E+02  0.50000000E+00  0.00000000E+00
  0.00000000E+00  0.19902439E+02  0.13665811E+02  0.50000000E+00  0.00000000E+00
  0.00000000E+00  0.19902439E+02  0.14641940E+02  0.50000000E+00  0.00000000E+00
  0.00000000E+00  0.19902439E+02  0.15618069E+02  0.50000000E+00  0.00000000E+00
  0.00000000E+00  0.19902439E+02  0.16594199E+02  0.50000000E+00  0.00000000E+00
  0.00000000E+00  0.19902439E+02  0.17570328E+02  0.50000000E+00  0.00000000E+00
  0.00000000E+00  0.19902439E+02  0.18546457E+02  0.50000000E+00  0.00000000E+00
  0.00000000E+00  0.19902439E+02  0.19522587E+02  0.50000000E+00  0.00000000E+00
  0.00000000E+00  0.19902439E+02  0.20498716E+02  0.49869853E+00 -0.10575764E-09
  0.00000000E+00  0.22390244E+02  0.00000000E+00  0.50000000E+00  0.00000000E+00
  0.00000000E+00  0.22390244E+02  0.97609808E+00  0.50000000E+00  0.00000000E+00
  0.00000000E+00  0.22390244E+02  0.19521962E+01  0.50000000E+00  0.00000000E+00
  0.00000000E+00  0.22390244E+02  0.29282942E+01  0.50000000E+00  0.00000000E+00
  0.00000000E+00  0.22390244E+02  0.39043923E+01  0.50000000E+00  0.00000000E+00
  0.00000000E+00  0.22390244E+02  0.48804904E+01  0.50000000E+00  0.00000000E+00
  0.00000000E+00  0.22390244E+02  0.58565885E+01  0.50000000E+00  0.00000000E+00
  0.00000000E+00  0.22390244E+02  0.68326866E+01  0.50000000E+00  0.00000000E+00
  0.00000000E+00  0.22390244E+02  0.78087847E+01  0.50000000E+00  0.00000000E+00
  0.00000000E+00  0.22390244E+02  0.87848827E+01  0.50000000E+00  0.00000000E+00
  0.00000000E+00  0.22390244E+02  0.97609808E+01  0.50000000E+00  0.00000000E+00
  0.00000000E+00  0.22390244E+02  0.10737079E+02  0.50000000E+00  0.00000000E+00
  0.00000000E+00  0.22390244E+02  0.11713177E+02  0.50000000E+00  0.00000000E+00
  0.00000000E+00  0.22390244E+02  0.12689275E+02  0.50000000E+00  0.00000000E+00
  0.00000000E+00  0.22390244E+02  0.13665373E+02  0.50000000E+00  0.00000000E+00
  0.00000000E+00  0.22390244E+02  0.14641471E+02  0.50000000E+00  0.00000000E+00
  0.00000000E+00  0.22390244E+02  0.15617569E+02  0.50000000E+00  0.00000000E+00
  0.00000000E+00  0.22390244E+02  0.16593667E+02  0.50000000E+00  0.00000000E+00
  0.00000000E+00  0.22390244E+02  0.17569765E+02  0.50000000E+00  0.00000000E+00
  0.00000000E+00  0.22390244E+02  0.18545864E+02  0.50000000E+00  0.00000000E+00
  0.00000000E+00  0.22390244E+02  0.19521962E+02  0.50000000E+00  0.00000000E+00
  0.00000000E+00  0.22390244E+02  0.20498060E+02  0.49803594E+00 -0.98236826E-10
  0.00000000E+00  0.24878049E+02  0.00000000E+00  0.50000000E+00  0.00000000E+00
  0.00000000E+00  0.24878049E+02  0.97609053E+00  0.50000000E+00  0.00000000E+00
  0.00000000E+00  0.24878049E+02  0.19521811E+01  0.50000000E+00  0.00000000E+00
  0.00000000E+00  0.24878049E+02  0.29282716E+01  0.50000000E+00  0.00000000E+00
  0.00000000E+00  0.24878049E+02  0.39043621E+01  0.50000000E+00  0.00000000E+00
  0.00000000E+00  0.24878049E+02  0.48804527E+01  0.50000000E+00  0.00000000E+00
  0.00000000E+00  0.24878049E+02  0.58565432E+01  0.50000000E+00  0.00000000E+00
  0.00000000E+00  0.24878049E+02  0.68326337E+01  0.50000000E+00  0.00000000E+00
  0.00000000E+00  0.24878049E+02  0.78087243E+01  0.50000000E+00  0.00000000E+00
  0.00000000E+00  0.24878049E+02  0.87848148E+01  0.50000000E+00  0.00000000E+00
  0.00000000E+00  0.24878049E+02  0.97609053E+01  0.50000000E+00  0.00000000E+00
  0.00000000E+00  0.24878049E+02  0.10736996E+02  0.50000000E+00  0.00000000E+00
  0.00000000E+00  0.24878049E+02  0.11713086E+02  0.50000000E+00  0.00000000E+00
  0.00000000E+00  0.24878049E+02  0.12689177E+02  0.50000000E+00  0.00000000E+00
  0.00000000E+00  0.24878049E+02  0.13665267E+02  0.50000000E+00  0.00000000E+00
  0.00000000E+00  0.24878049E+02  0.14641358E+02  0.50000000E+00  0.00000000E+00
  0.00000000E+00  0.24878049E+02  0.15617449E+02  0.50000000E+00  0.00000000E+00
  0.00000000E+00  0.24878049E+02  0.16593539E+02  0.50000000E+00  0.00000000E+00
  0.00000000E+00  0.24878049E+02  0.17569630E+02  0.50000000E+00  0.00000000E+00
  0.00000000E+00  0.24878049E+02  0.18545720E+02  0.50000000E+00  0.00000000E+00
  0.00000000E+00  0.24878049E+02  0.19521811E+02  0.50000000E+00  0.00000000E+00
  0.00000000E+00  0.24878049E+02  0.20497901E+02  0.49787587E+00 -0.84355096E-10
  0.00000000E+00  0.27365854E+02  0.00000000E+00  0.50000000E+00  0.00000000E+00
  0.00000000E+00  0.27365854E+02  0.97608224E+00  0.50000000E+00  0.00000000E+00
  0.00000000E+00  0.27365854E+02  0.19521645E+01  0.50000000E+00  0.00000000E+00
  0.00000000E+00  0.27365854E+02  0.29282467E+01  0.50000000E+00  0.00000000E+00
  0.00000000E+00  0.27365854E+02  0.39043289E+01  0.50000000E+00  0.00000000E+00
  0.00000000E+00  0.27365854E+02  0.48804112E+01  0.50000000E+00  0.00000000E+00
  0.00000000E+00  0.27365854E+02  0.58564934E+01  0.50000000E+00  0.00000000E+00
  0.00000000E+00  0.27365854E+02  0.68325756E+01  0.50000000E+00  0.00000000E+00
  0.00000000E+00  0.27365854E+02  0.78086579E+01  0.50000000E+00  0.00000000E+00
  0.00000000E+00  0.27365854E+02  0.87847401E+01  0.50000000E+00  0.00000000E+00
  0.00000000E+00  0.27365854E+02  0.97608224E+01  0.50000000E+00  0.00000000E+00
  0.00000000E+00  0.27365854E+02  0.10736905E+02  0.50000000E+00  0.00000000E+00
  0.00000000E+00  0.27365854E+02  0.11712987E+02  0.50000000E+00  0.00000000E+00
  0.00000000E+00  0.27365854E+02  0.12689069E+02  0.50000000E+00  0.00000000E+00
  0.00000000E+00  0.27365854E+02  0.13665151E+02  0.50000000E+00  0.00000000E+00
  0.00000000E+00  0.27365854E+02  0.14641234E+02  0.50000000E+00  0.00000000E+00
  0.00000000E+00  0.27365854E+02  0.15617316E+02  0.50000000E+00  0.00000000E+00
  0.00000000E+00  0.27365854E+02  0.16593398E+02  0.50000000E+00  0.00000000E+00
  0.00000000E+00  0.27365854E+02  0.17569480E+02  0.50000000E+00  0.00000000E+00
  0.00000000E+00  0.27365854E+02  0.18545562E+02  0.50000000E+00  0.00000000E+00
  0.00000000E+00  0.27365854E+02  0.19521645E+02  0.50000000E+00  0.00000000E+00
  0.00000000E+00  0.27365854E+02  0.20497727E+02  0.49770013E+00 -0.63048869E-10
  0.00000000E+00  0.29853659E+02  0.00000000E+00  0.50000000E+00  0.00000000E+00
  0.00000000E+00  0.29853659E+02  0.97609247E+00  0.50000000E+00  0.00000000E+00
  0.00000000E+00  0.29853659E+02  0.19521849E+01  0.50000000E+00  0.00000000E+00
  0.00000000E+00  0.29853659E+02  0.29282774E+01  0.50000000E+00  0.00000000E+00
  0.00000000E+00  0.29853659E+02  0.39043699E+01  0.50000000E+00  0.00000000E+00
  0.00000000E+00  0.29853659E+02  0.48804623E+01  0.50000000E+00  0.00000000E+00
  0.00000000E+00  0.29853659E+02  0.58565548E+01  0.50000000E+00  0.00000000E+00
  0.00000000E+00  0.29853659E+02  0.68326473E+01  0.50000000E+00  0.00000000E+00
  0.00000000E+00  0.29853659E+02  0.78087397E+01  0.50000000E+00  0.00000000E+00
  0.00000000E+00  0.29853659E+02  0.87848322E+01  0.50000000E+00  0.00000000E+00
  0.00000000E+00  0.29853659E+02  0.97609247E+01  0.50000000E+00  0.00000000E+00
  0.00000000E+00  0.29853659E+02  0.10737017E+02  0.50000000E+00  0.00000000E+00
  0.00000000E+00  0.29853659E+02  0.11713110E+02  0.50000000E+00  0.00000000E+00
  0.00000000E+00  0.29853659E+02  0.12689202E+02  0.50000000E+00  0.00000000E+00
  0.00000000E+00  0.29853659E+02  0.13665295E+02  0.50000000E+00  0.00000000E+00
  0.00000000E+00  0.29853659E+02  0.14641387E+02  0.50000000E+00  0.00000000E+00
  0.00000000E+00  0.29853659E+02  0.15617479E+02  0.50000000E+00  0.00000000E+00
  0.00000000E+00  0.29853659E+02  0.16593572E+02  0.50000000E+00  0.00000000E+00
  0.00000000E+00  0.29853659E+02  0.17569664E+02  0.50000000E+00  0.00000000E+00
  0.00000000E+00  0.29853659E+02  0.18545757E+02  0.50000000E+00  0.00000000E+00
  0.00000000E+00  0.29853659E+02  0.19521849E+02  0.50000000E+00  0.00000000E+00
  0.00000000E+00  0.29853659E+02  0.20497942E+02  0.49791754E+00 -0.46501223E-10
  0.00000000E+00  0.32341463E+02  0.00000000E+00  0.50000000E+00  0.00000000E+00
  0.00000000E+00  0.32341463E+02  0.97610740E+00  0.50000000E+00  0.00000000E+00
  0.00000000E+00  0.32341463E+02  0.19522148E+01  0.50000000E+00  0.00000000E+00
  0.00000000E+00  0.32341463E+02  0.29283222E+01  0.50000000E+00  0.00000000E+00
  0.00000000E+00  0.32341463E+02  0.39044296E+01  0.50000000E+00  0.00000000E+00
  0.00000000E+00  0.32341463E+02  0.48805370E+01  0.50000000E+00  0.00000000E+00
  0.00000000E+00  0.32341463E+02  0.58566444E+01  0.50000000E+00  0.00000000E+00
  0.00000000E+00  0.32341463E+02  0.68327518E+01  0.50000000E+00  0.00000000E+00
  0.00000000E+00  0.32341463E+02  0.78088592E+01  0.50000000E+00  0.00000000E+00
  0.00000000E+00  0.32341463E+02  0.87849666E+01  0.50000000E+00  0.00000000E+00
  0.00000000E+00  0.32341463E+02  0.97610740E+01  0.50000000E+00  0.00000000E+00
  0.00000000E+00  0.32341463E+02  0.10737181E+02  0.50000000E+00  0.00000000E+00
  0.00000000E+00  0.32341463E+02  0.11713289E+02  0.50000000E+00  0.00000000E+00
  0.00000000E+00  0.32341463E+02  0.12689396E+02  0.50000000E+00  0.00000000E+00
  0.00000000E+00  0.32341463E+02  0.13665504E+02  0.50000000E+00  0.00000000E+00
  0.00000000E+00  0.32341463E+02  0.14641611E+02  0.50000000E+00  0.00000000E+00
  0.00000000E+00  0.32341463E+02  0.15617718E+02  0.50000000E+00  0.00000000E+00
  0.00000000E+00  0.32341463E+02  0.16593826E+02  0.50000000E+00  0.00000000E+00
  0.00000000E+00  0.32341463E+02  0.17569933E+02  0.50000000E+00  0.00000000E+00
  0.00000000E+00  0.32341463E+02  0.18546041E+02  0.50000000E+00  0.00000000E+00
  0.00000000E+00  0.32341463E+02  0.19522148E+02  0.50000000E+00  0.00000000E+00
  0.00000000E+00  0.32341463E+02  0.20498255E+02  0.49823443E+00 -0.44317276E-10
  0.00000000E+00  0.34829268E+02  0.00000000E+00  0.50000000E+00  0.00000000E+00
  0.00000000E+00  0.34829268E+02  0.97611378E+00  0.50000000E+00  0.00000000E+00
  0.00000000E+00  0.34829268E+02  0.19522276E+01  0.50000000E+00  0.00000000E+00
  0.00000000E+00  0.34829268E+02  0.29283413E+01  0.50000000E+00  0.00000000E+00
  0.00000000E+00  0.34829268E+02  0.39044551E+01  0.50000000E+00  0.00000000E+00
  0.00000000E+00  0.34829268E+02  0.48805689E+01  0.50000000E+00  0.00000000E+00
  0.00000000E+00  0.34829268E+02  0.58566827E+01  0.50000000E+00  0.00000000E+00
  0.00000000E+00  0.34829268E+02  0.68327964E+01  0.50000000E+00  0.00000000E+00
  0.00000000E+00  0.34829268E+02  0.78089102E+01  0.50000000E+00  0.00000000E+00
  0.00000000E+00  0.34829268E+02  0.87850240E+01  0.50000000E+00  0.00000000E+00
  0.00000000E+00  0.34829268E+02  0.97611378E+01  0.50000000E+00  0.00000000E+00
  0.00000000E+00  0.34829268E+02  0.10737252E+02  0.50000000E+00  0.00000000E+00
  0.00000000E+00  0.34829268E+02  0.11713365E+02  0.50000000E+00  0.00000000E+00
  0.00000000E+00  0.34829268E+02  0.12689479E+02  0.50000000E+00  0.00000000E+00
  0.00000000E+00  0.34829268E+02  0.13665593E+02  0.50000000E+00  0.00000000E+00
  0.00000000E+00  0.34829268E+02  0.14641707E+02  0.50000000E+00  0.00000000E+00
  0.00000000E+00  0.34829268E+02  0.15617820E+02  0.50000000E+00  0.00000000E+00
  0.00000000E+00  0.34829268E+02  0.16593934E+02  0.50000000E+00  0.00000000E+00
  0.00000000E+00  0.34829268E+02  0.17570048E+02  0.50000000E+00  0.00000000E+00
  0.00000000E+00  0.34829268E+02  0.18546162E+02  0.50000000E+00  0.00000000E+00
  0.00000000E+00  0.34829268E+02  0.19522276E+02  0.50000000E+00  0.00000000E+00
  0.00000000E+00  0.34829268E+02  0.20498389E+02  0.49836896E+00 -0.61989536E-10
  0.00000000E+00  0.37317073E+02  0.00000000E+00  0.50000000E+00  0.00000000E+00
  0.00000000E+00  0.37317073E+02  0.97613934E+00  0.50000000E+00  0.00000000E+00
  0.00000000E+00  0.37317073E+02  0.19522787E+01  0.50000000E+00  0.00000000E+00
  0.00000000E+00  0.37317073E+02  0.29284180E+01  0.50000000E+00  0.00000000E+00
  0.00000000E+00  0.37317073E+02  0.39045573E+01  0.50000000E+00  0.00000000E+00
  0.00000000E+00  0.37317073E+02  0.48806967E+01  0.50000000E+00  0.00000000E+00
  0.00000000E+00  0.37317073E+02  0.58568360E+01  0.50000000E+00  0.00000000E+00
  0.00000000E+00  0.37317073E+02  0.68329754E+01  0.50000000E+00  0.00000000E+00
  0.00000000E+00  0.37317073E+02  0.78091147E+01  0.50000000E+00  0.00000000E+00
  0.00000000E+00  0.37317073E+02  0.87852540E+01  0.50000000E+00  0.00000000E+00
  0.00000000E+00  0.37317073E+02  0.97613934E+01  0.50000000E+00  0.00000000E+00
  0.00000000E+00  0.37317073E+02  0.10737533E+02  0.50000000E+00  0.00000000E+00
  0.00000000E+00  0.37317073E+02  0.11713672E+02  0.50000000E+00  0.00000000E+00
  0.00000000E+00  0.37317073E+02  0.12689811E+02  0.50000000E+00  0.00000000E+00
  0.00000000E+00  0.37317073E+02  0.13665951E+02  0.50000000E+00  0.00000000E+00
  0.00000000E+00  0.37317073E+02  0.14642090E+02  0.50000000E+00  0.00000000E+00
  0.00000000E+00  0.37317073E+02  0.15618229E+02  0.50000000E+00  0.00000000E+00
  0.00000000E+00  0.37317073E+02  0.16594369E+02  0.50000000E+00  0.00000000E+00
  0.00000000E+00  0.37317073E+02  0.17570508E+02  0.50000000E+00  0.00000000E+00
  0.00000000E+00  0.37317073E+02  0.18546647E+02  0.50000000E+00  0.00000000E+00
  0.00000000E+00  0.37317073E+02  0.19522787E+02  0.50000000E+00  0.00000000E+00
  0.00000000E+00  0.37317073E+02  0.20498926E+02  0.49890906E+00 -0.95216224E-10
  0.00000000E+00  0.39804878E+02  0.00000000E+00  0.50000000E+00  0.00000000E+00
  0.00000000E+00  0.39804878E+02  0.97614329E+00  0.50000000E+00  0.00000000E+00
  0.00000000E+00  0.39804878E+02  0.19522866E+01  0.50000000E+00  0.00000000E+00
  0.00000000E+00  0.39804878E+02  0.29284299E+01  0.50000000E+00  0.00000000E+00
  0.00000000E+00  0.39804878E+02  0.39045732E+01  0.50000000E+00  0.00000000E+00
  0.00000000E+00  0.39804878E+02  0.48807164E+01  0.50000000E+00  0.00000000E+00
  0.00000000E+00  0.39804878E+02  0.58568597E+01  0.50000000E+00  0.00000000E+00
  0.00000000E+00  0.39804878E+02  0.68330030E+01  0.50000000E+00  0.00000000E+00
  0.00000000E+00  0.39804878E+02  0.78091463E+01  0.50000000E+00  0.00000000E+00
  0.00000000E+00  0.39804878E+02  0.87852896E+01  0.50000000E+00  0.00000000E+00
  0.00000000E+00  0.39804878E+02  0.97614329E+01  0.50000000E+00  0.00000000E+00
  0.00000000E+00  0.39804878E+02  0.10737576E+02  0.50000000E+00  0.00000000E+00
  0.00000000E+00  0.39804878E+02  0.11713719E+02  0.50000000E+00  0.00000000E+00
  0.00000000E+00  0.39804878E+02  0.12689863E+02  0.50000000E+00  0.00000000E+00
  0.00000000E+00  0.39804878E+02  0.13666006E+02  0.50000000E+00  0.00000000E+00
  0.00000000E+00  0.39804878E+02  0.14642149E+02  0.50000000E+00  0.00000000E+00