          Title="3D head and conc at t=   0.2500E+04 days"
          variables="x","y","z","head","conc"
          zone i=      22, j=      42, k=      42, T="3D"
  0.00000000E+00  0.00000000E+00  0.00000000E+00  0.50000000E+00  0.00000000E+00
  0.00000000E+00  0.00000000E+00  0.97611249E+00  0.50000000E+00  0.00000000E+00
  0.00000000E+00  0.00000000E+00  0.19522250E+01  0.50000000E+00  0.00000000E+00
  0.00000000E+00  0.00000000E+00  0.29283375E+01  0.50000000E+00  0.00000000E+00
  0.00000000E+00  0.00000000E+00  0.39044499E+01  0.50000000E+00  0.00000000E+00
  0.00000000E+00  0.00000000E+00  0.48805624E+01  0.50000000E+00  0.00000000E+00
  0.00000000E+00  0.00000000E+00  0.58566749E+01  0.50000000E+00  0.00000000E+00
  0.00000000E+00  0.00000000E+00  0.68327874E+01  0.50000000E+00  0.00000000E+00
  0.00000000E+00  0.00000000E+00  0.78088999E+01  0.50000000E+00  0.00000000E+00
  0.00000000E+00  0.00000000E+00  0.87850124E+01  0.50000000E+00  0.00000000E+00
  0.00000000E+00  0.00000000E+00  0.97611249E+01  0.50000000E+00  0.00000000E+00
  0.00000000E+00  0.00000000E+00  0.10737237E+02  0.50000000E+00  0.00000000E+00
  0.00000000E+00  0.00000000E+00  0.11713350E+02  0.50000000E+00  0.00000000E+00
  0.00000000E+00  0.00000000E+00  0.12689462E+02  0.50000000E+00  0.00000000E+00
  0.00000000E+00  0.00000000E+00  0.13665575E+02  0.50000000E+00  0.00000000E+00
  0.00000000E+00  0.00000000E+00  0.14641687E+02  0.50000000E+00  0.00000000E+00
  0.00000000E+00  0.00000000E+00  0.15617800E+02  0.50000000E+00  0.00000000E+00
  0.00000000E+00  0.00000000E+00  0.16593912E+02  0.50000000E+00  0.00000000E+00
  0.00000000E+00  0.00000000E+00  0.17570025E+02  0.50000000E+00  0.00000000E+00
  0.00000000E+00  0.00000000E+00  0.18546137E+02  0.50000000E+00  0.00000000E+00
  0.00000000E+00  0.00000000E+00  0.19522250E+02  0.50000000E+00  0.00000000E+00
  0.00000000E+00  0.00000000E+00  0.20498362E+02  0.49834207E+00 -0.89455439E-10
  0.00000000E+00  0.24878049E+01  0.00000000E+00  0.50000000E+00  0.00000000E+00
  0.00000000E+00  0.24878049E+01  0.97611406E+00  0.50000000E+00  0.00000000E+00
  0.00000000E+00  0.24878049E+01  0.19522281E+01  0.50000000E+00  0.00000000E+00
  0.00000000E+00  0.24878049E+01  0.29283422E+01  0.50000000E+00  0.00000000E+00
  0.00000000E+00  0.24878049E+01  0.39044562E+01  0.50000000E+00  0.00000000E+00
  0.00000000E+00  0.24878049E+01  0.48805703E+01  0.50000000E+00  0.00000000E+00
  0.00000000E+00  0.24878049E+01  0.58566844E+01  0.50000000E+00  0.00000000E+00
  0.00000000E+00  0.24878049E+01  0.68327984E+01  0.50000000E+00  0.00000000E+00
  0.00000000E+00  0.24878049E+01  0.78089125E+01  0.50000000E+00  0.00000000E+00
  0.00000000E+00  0.24878049E+01  0.87850265E+01  0.50000000E+00  0.00000000E+00
  0.00000000E+00  0.24878049E+01  0.97611406E+01  0.50000000E+00  0.00000000E+00
  0.00000000E+00  0.24878049E+01  0.10737255E+02  0.50000000E+00  0.00000000E+00
  0.00000000E+00  0.24878049E+01  0.11713369E+02  0.50000000E+00  0.00000000E+00
  0.00000000E+00  0.24878049E+01  0.12689483E+02  0.50000000E+00  0.00000000E+00
  0.00000000E+00  0.24878049E+01  0.13665597E+02  0.50000000E+00  0.00000000E+00
  0.00000000E+00  0.24878049E+01  0.14641711E+02  0.50000000E+00  0.00000000E+00
  0.00000000E+00  0.24878049E+01  0.15617825E+02  0.50000000E+00  0.00000000E+00
  0.00000000E+00  0.24878049E+01  0.16593939E+02  0.50000000E+00  0.00000000E+00
  0.00000000E+00  0.24878049E+01  0.17570053E+02  0.50000000E+00  0.00000000E+00
  0.00000000E+00  0.24878049E+01  0.18546167E+02  0.50000000E+00  0.00000000E+00
  0.00000000E+00  0.24878049E+01  0.19522281E+02  0.50000000E+00  0.00000000E+00
  0.00000000E+00  0.24878049E+01  0.20498395E+02  0.49837651E+00 -0.86052855E-10
  0.00000000E+00  0.49756098E+01  0.00000000E+00  0.50000000E+00  0.00000000E+00
  0.00000000E+00  0.49756098E+01  0.97612122E+00  0.50000000E+00  0.00000000E+00
  0.00000000E+00  0.49756098E+01  0.19522424E+01  0.50000000E+00  0.00000000E+00
  0.00000000E+00  0.49756098E+01  0.29283637E+01  0.50000000E+00  0.00000000E+00
  0.00000000E+00  0.49756098E+01  0.39044849E+01  0.50000000E+00  0.00000000E+00
  0.00000000E+00  0.49756098E+01  0.48806061E+01  0.50000000E+00  0.00000000E+00
  0.00000000E+00  0.49756098E+01  0.58567273E+01  0.50000000E+00  0.00000000E+00
  0.00000000E+00  0.49756098E+01  0.68328485E+01  0.50000000E+00  0.00000000E+00
  0.00000000E+00  0.49756098E+01  0.78089698E+01  0.50000000E+00  0.00000000E+00
  0.00000000E+00  0.49756098E+01  0.87850910E+01  0.50000000E+00  0.00000000E+00
  0.00000000E+00  0.49756098E+01  0.97612122E+01  0.50000000E+00  0.00000000E+00
  0.00000000E+00  0.49756098E+01  0.10737333E+02  0.50000000E+00  0.00000000E+00
  0.00000000E+00  0.49756098E+01  0.11713455E+02  0.50000000E+00  0.00000000E+00
  0.00000000E+00  0.49756098E+01  0.12689576E+02  0.50000000E+00  0.00000000E+00
  0.00000000E+00  0.49756098E+01  0.13665697E+02  0.50000000E+00  0.00000000E+00
  0.00000000E+00  0.49756098E+01  0.14641818E+02  0.50000000E+00  0.00000000E+00
  0.00000000E+00  0.49756098E+01  0.15617940E+02  0.50000000E+00  0.00000000E+00
  0.00000000E+00  0.49756098E+01  0.16594061E+02  0.50000000E+00  0.00000000E+00
  0.00000000E+00  0.49756098E+01  0.17570182E+02  0.50000000E+00  0.00000000E+00
  0.00000000E+00  0.49756098E+01  0.18546303E+02  0.50000000E+00  0.00000000E+00
  0.00000000E+00  0.49756098E+01  0.19522424E+02  0.50000000E+00  0.00000000E+00
  0.00000000E+00  0.49756098E+01  0.20498546E+02  0.49852876E+00 -0.77522191E-10
  0.00000000E+00  0.74634146E+01  0.00000000E+00  0.50000000E+00  0.00000000E+00
  0.00000000E+00  0.74634146E+01  0.97613300E+00  0.50000000E+00  0.00000000E+00
  0.00000000E+00  0.74634146E+01  0.19522660E+01  0.50000000E+00  0.00000000E+00
  0.00000000E+00  0.74634146E+01  0.29283990E+01  0.50000000E+00  0.00000000E+00
  0.00000000E+00  0.74634146E+01  0.39045320E+01  0.50000000E+00  0.00000000E+00
  0.00000000E+00  0.74634146E+01  0.48806650E+01  0.50000000E+00  0.00000000E+00
  0.00000000E+00  0.74634146E+01  0.58567980E+01  0.50000000E+00  0.00000000E+00
  0.00000000E+00  0.74634146E+01  0.68329310E+01  0.50000000E+00  0.00000000E+00
  0.00000000E+00  0.74634146E+01  0.78090640E+01  0.50000000E+00  0.00000000E+00
  0.00000000E+00  0.74634146E+01  0.87851970E+01  0.50000000E+00  0.00000000E+00
  0.00000000E+00  0.74634146E+01  0.97613300E+01  0.50000000E+00  0.00000000E+00
  0.00000000E+00  0.74634146E+01  0.10737463E+02  0.50000000E+00  0.00000000E+00
  0.00000000E+00  0.74634146E+01  0.11713596E+02  0.50000000E+00  0.00000000E+00
  0.00000000E+00  0.74634146E+01  0.12689729E+02  0.50000000E+00  0.00000000E+00
  0.00000000E+00  0.74634146E+01  0.13665862E+02  0.50000000E+00  0.00000000E+00
  0.00000000E+00  0.74634146E+01  0.14641995E+02  0.50000000E+00  0.00000000E+00
  0.00000000E+00  0.74634146E+01  0.15618128E+02  0.50000000E+00  0.00000000E+00
  0.00000000E+00  0.74634146E+01  0.16594261E+02  0.50000000E+00  0.00000000E+00
  0.00000000E+00  0.74634146E+01  0.17570394E+02  0.50000000E+00  0.00000000E+00
  0.00000000E+00  0.74634146E+01  0.18546527E+02  0.50000000E+00  0.00000000E+00
  0.00000000E+00  0.74634146E+01  0.19522660E+02  0.50000000E+00  0.00000000E+00
  0.00000000E+00  0.74634146E+01  0.20498793E+02  0.49877897E+00 -0.74825498E-10
  0.00000000E+00  0.99512195E+01  0.00000000E+00  0.50000000E+00  0.00000000E+00
  0.00000000E+00  0.99512195E+01  0.97613193E+00  0.50000000E+00  0.00000000E+00
  0.00000000E+00  0.99512195E+01  0.19522639E+01  0.50000000E+00  0.00000000E+00
  0.00000000E+00  0.99512195E+01  0.29283958E+01  0.50000000E+00  0.00000000E+00
  0.00000000E+00  0.99512195E+01  0.39045277E+01  0.50000000E+00  0.00000000E+00
  0.00000000E+00  0.99512195E+01  0.48806597E+01  0.50000000E+00  0.00000000E+00
  0.00000000E+00  0.99512195E+01  0.58567916E+01  0.50000000E+00  0.00000000E+00
  0.00000000E+00  0.99512195E+01  0.68329235E+01  0.50000000E+00  0.00000000E+00
  0.00000000E+00  0.99512195E+01  0.78090555E+01  0.50000000E+00  0.00000000E+00
  0.00000000E+00  0.99512195E+01  0.87851874E+01  0.50000000E+00  0.00000000E+00
  0.00000000E+00  0.99512195E+01  0.97613193E+01  0.50000000E+00  0.00000000E+00
  0.00000000E+00  0.99512195E+01  0.10737451E+02  0.50000000E+00  0.00000000E+00
  0.00000000E+00  0.99512195E+01  0.11713583E+02  0.50000000E+00  0.00000000E+00
  0.00000000E+00  0.99512195E+01  0.12689715E+02  0.50000000E+00  0.00000000E+00
  0.00000000E+00  0.99512195E+01  0.13665847E+02  0.50000000E+00  0.00000000E+00
  0.00000000E+00  0.99512195E+01  0.14641979E+02  0.50000000E+00  0.00000000E+00
  0.00000000E+00  0.99512195E+01  0.15618111E+02  0.50000000E+00  0.00000000E+00
  0.00000000E+00  0.99512195E+01  0.16594243E+02  0.50000000E+00  0.00000000E+00
  0.00000000E+00  0.99512195E+01  0.17570375E+02  0.50000000E+00  0.00000000E+00
  0.00000000E+00  0.99512195E+01  0.18546507E+02  0.50000000E+00  0.00000000E+00
  0.00000000E+00  0.99512195E+01  0.19522639E+02  0.50000000E+00  0.00000000E+00
  0.00000000E+00  0.99512195E+01  0.20498771E+02  0.49875665E+00 -0.80098833E-10
  0.00000000E+00  0.12439024E+02  0.00000000E+00  0.50000000E+00  0.00000000E+00
  0.00000000E+00  0.12439024E+02  0.97613090E+00  0.50000000E+00  0.00000000E+00
  0.00000000E+00  0.12439024E+02  0.19522618E+01  0.50000000E+00  0.00000000E+00
  0.00000000E+00  0.12439024E+02  0.29283927E+01  0.50000000E+00  0.00000000E+00
  0.00000000E+00  0.12439024E+02  0.39045236E+01  0.50000000E+00  0.00000000E+00
  0.00000000E+00  0.12439024E+02  0.48806545E+01  0.50000000E+00  0.00000000E+00
  0.00000000E+00  0.12439024E+02  0.58567854E+01  0.50000000E+00  0.00000000E+00
  0.00000000E+00  0.12439024E+02  0.68329163E+01  0.50000000E+00  0.00000000E+00
  0.00000000E+00  0.12439024E+02  0.78090472E+01  0.50000000E+00  0.00000000E+00
  0.00000000E+00  0.12439024E+02  0.87851781E+01  0.50000000E+00  0.00000000E+00
  0.00000000E+00  0.12439024E+02  0.97613090E+01  0.50000000E+00  0.00000000E+00
  0.00000000E+00  0.12439024E+02  0.10737440E+02  0.50000000E+00  0.00000000E+00
  0.00000000E+00  0.12439024E+02  0.11713571E+02  0.50000000E+00  0.00000000E+00
  0.00000000E+00  0.12439024E+02  0.12689702E+02  0.50000000E+00  0.00000000E+00
  0.00000000E+00  0.12439024E+02  0.13665833E+02  0.50000000E+00  0.00000000E+00
  0.00000000E+00  0.12439024E+02  0.14641964E+02  0.50000000E+00  0.00000000E+00
  0.00000000E+00  0.12439024E+02  0.15618094E+02  0.50000000E+00  0.00000000E+00
  0.00000000E+00  0.12439024E+02  0.16594225E+02  0.50000000E+00  0.00000000E+00
  0.00000000E+00  0.12439024E+02  0.17570356E+02  0.50000000E+00  0.00000000E+00
  0.00000000E+00  0.12439024E+02  0.18546487E+02  0.50000000E+00  0.00000000E+00
  0.00000000E+00  0.12439024E+02  0.19522618E+02  0.50000000E+00  0.00000000E+00
  0.00000000E+00  0.12439024E+02  0.20498749E+02  0.49873450E+00 -0.73903406E-10
  0.00000000E+00  0.14926829E+02  0.00000000E+00  0.50000000E+00  0.00000000E+00
  0.00000000E+00  0.14926829E+02  0.97612969E+00  0.50000000E+00  0.00000000E+00
  0.00000000E+00  0.14926829E+02  0.19522594E+01  0.50000000E+00  0.00000000E+00
  0.00000000E+00  0.14926829E+02  0.29283891E+01  0.50000000E+00  0.00000000E+00
  0.00000000E+00  0.14926829E+02  0.39045188E+01  0.50000000E+00  0.00000000E+00
  0.00000000E+00  0.14926829E+02  0.48806485E+01  0.50000000E+00  0.00000000E+00
  0.00000000E+00  0.14926829E+02  0.58567782E+01  0.50000000E+00  0.00000000E+00
  0.00000000E+00  0.14926829E+02  0.68329078E+01  0.50000000E+00  0.00000000E+00
  0.00000000E+00  0.14926829E+02  0.78090375E+01  0.50000000E+00  0.00000000E+00
  0.00000000E+00  0.14926829E+02  0.87851672E+01  0.50000000E+00  0.00000000E+00
  0.00000000E+00  0.14926829E+02  0.97612969E+01  0.50000000E+00  0.00000000E+00
  0.00000000E+00  0.14926829E+02  0.10737427E+02  0.50000000E+00  0.00000000E+00
  0.00000000E+00  0.14926829E+02  0.11713556E+02  0.50000000E+00  0.00000000E+00
  0.00000000E+00  0.14926829E+02  0.12689686E+02  0.50000000E+00  0.00000000E+00
  0.00000000E+00  0.14926829E+02  0.13665816E+02  0.50000000E+00  0.00000000E+00
  0.00000000E+00  0.14926829E+02  0.14641945E+02  0.50000000E+00  0.00000000E+00
  0.00000000E+00  0.14926829E+02  0.15618075E+02  0.50000000E+00  0.00000000E+00
  0.00000000E+00  0.14926829E+02  0.16594205E+02  0.50000000E+00  0.00000000E+00
  0.00000000E+00  0.14926829E+02  0.17570334E+02  0.50000000E+00  0.00000000E+00
  0.00000000E+00  0.14926829E+02  0.18546464E+02  0.50000000E+00  0.00000000E+00
  0.00000000E+00  0.14926829E+02  0.19522594E+02  0.50000000E+00  0.00000000E+00
  0.00000000E+00  0.14926829E+02  0.20498724E+02  0.49870748E+00 -0.88011921E-10
  0.00000000E+00  0.17414634E+02  0.00000000E+00  0.50000000E+00  0.00000000E+00
  0.00000000E+00  0.17414634E+02  0.97613417E+00  0.50000000E+00  0.00000000E+00
  0.00000000E+00  0.17414634E+02  0.19522683E+01  0.50000000E+00  0.00000000E+00
  0.00000000E+00  0.17414634E+02  0.29284025E+01  0.50000000E+00  0.00000000E+00
  0.00000000E+00  0.17414634E+02  0.39045367E+01  0.50000000E+00  0.00000000E+00
  0.00000000E+00  0.17414634E+02  0.48806709E+01  0.50000000E+00  0.00000000E+00
  0.00000000E+00  0.17414634E+02  0.58568050E+01  0.50000000E+00  0.00000000E+00
  0.00000000E+00  0.17414634E+02  0.68329392E+01  0.50000000E+00  0.00000000E+00
  0.00000000E+00  0.17414634E+02  0.78090734E+01  0.50000000E+00  0.00000000E+00
  0.00000000E+00  0.17414634E+02  0.87852075E+01  0.50000000E+00  0.00000000E+00
  0.00000000E+00  0.17414634E+02  0.97613417E+01  0.50000000E+00  0.00000000E+00
  0.00000000E+00  0.17414634E+02  0.10737476E+02  0.50000000E+00  0.00000000E+00
  0.00000000E+00  0.17414634E+02  0.11713610E+02  0.50000000E+00  0.00000000E+00
  0.00000000E+00  0.17414634E+02  0.12689744E+02  0.50000000E+00  0.00000000E+00
  0.00000000E+00  0.17414634E+02  0.13665878E+02  0.50000000E+00  0.00000000E+00
  0.00000000E+00  0.17414634E+02  0.14642013E+02  0.50000000E+00  0.00000000E+00
  0.00000000E+00  0.17414634E+02  0.15618147E+02  0.50000000E+00  0.00000000E+00
  0.00000000E+00  0.17414634E+02  0.16594281E+02  0.50000000E+00  0.00000000E+00
  0.00000000E+00  0.17414634E+02  0.17570415E+02  0.50000000E+00  0.00000000E+00
  0.00000000E+00  0.17414634E+02  0.18546549E+02  0.50000000E+00  0.00000000E+00
  0.00000000E+00  0.17414634E+02  0.19522683E+02  0.50000000E+00  0.00000000E+00
  0.00000000E+00  0.17414634E+02  0.20498818E+02  0.49880137E+00 -0.10929276E-09
  0.00000000E+00  0.19902439E+02  0.00000000E+00  0.50000000E+00  0.00000000E+00
  0.00000000E+00  0.19902439E+02  0.97612941E+00  0.50000000E+00  0.00000000E+00
  0.00000000E+00  0.19902439E+02  0.19522588E+01  0.50000000E+00  0.00000000E+00
  0.00000000E+00  0.19902439E+02  0.29283882E+01  0.50000000E+00  0.00000000E+00
  0.00000000E+00  0.19902439E+02  0.39045176E+01  0.50000000E+00  0.00000000E+00
  0.00000000E+00  0.19902439E+02  0.48806471E+01  0.50000000E+00  0.00000000E+00
  0.00000000E+00  0.19902439E+02  0.58567765E+01  0.50000000E+00  0.00000000E+00
  0.00000000E+00  0.19902439E+02  0.68329059E+01  0.50000000E+00  0.00000000E+00
  0.00000000E+00  0.19902439E+02  0.78090353E+01  0.50000000E+00  0.00000000E+00
  0.00000000E+00  0.19902439E+02  0.87851647E+01  0.50000000E+00  0.00000000E+00
  0.00000000E+00  0.19902439E+02  0.97612941E+01  0.50000000E+00  0.00000000E+00
  0.00000000E+00  0.19902439E+02  0.10737424E+02  0.50000000E+00  0.00000000E+00
  0.00000000E+00  0.19902439E+02  0.11713553E+02  0.50000000E+00  0.00000000E+00
  0.00000000E+00  0.19902439E+02  0.12689682E+02  0.50000000E+00  0.00000000E+00
  0.00000000E+00  0.19902439E+02  0.13665812E+02  0.50000000E+00  0.00000000E+00
  0.00000000E+00  0.19902439E+02  0.14641941E+02  0.50000000E+00  0.00000000E+00
  0.00000000E+00  0.19902439E+02  0.15618071E+02  0.50000000E+00  0.00000000E+00
  0.00000000E+00  0.19902439E+02  0.16594200E+02  0.50000000E+00  0.00000000E+00
  0.00000000E+00  0.19902439E+02  0.17570329E+02  0.50000000E+00  0.00000000E+00
  0.00000000E+00  0.19902439E+02  0.18546459E+02  0.50000000E+00  0.00000000E+00
  0.00000000E+00  0.19902439E+02  0.19522588E+02  0.50000000E+00  0.00000000E+00
  0.00000000E+00  0.19902439E+02  0.20498718E+02  0.49870029E+00 -0.10627153E-09
  0.00000000E+00  0.22390244E+02  0.00000000E+00  0.50000000E+00  0.00000000E+00
  0.00000000E+00  0.22390244E+02  0.97609822E+00  0.50000000E+00  0.00000000E+00
  0.00000000E+00  0.22390244E+02  0.19521964E+01  0.50000000E+00  0.00000000E+00
  0.00000000E+00  0.22390244E+02  0.29282946E+01  0.50000000E+00  0.00000000E+00
  0.00000000E+00  0.22390244E+02  0.39043929E+01  0.50000000E+00  0.00000000E+00
  0.00000000E+00  0.22390244E+02  0.48804911E+01  0.50000000E+00  0.00000000E+00
  0.00000000E+00  0.22390244E+02  0.58565893E+01  0.50000000E+00  0.00000000E+00
  0.00000000E+00  0.22390244E+02  0.68326875E+01  0.50000000E+00  0.00000000E+00
  0.00000000E+00  0.22390244E+02  0.78087857E+01  0.50000000E+00  0.00000000E+00
  0.00000000E+00  0.22390244E+02  0.87848839E+01  0.50000000E+00  0.00000000E+00
  0.00000000E+00  0.22390244E+02  0.97609822E+01  0.50000000E+00  0.00000000E+00
  0.00000000E+00  0.22390244E+02  0.10737080E+02  0.50000000E+00  0.00000000E+00
  0.00000000E+00  0.22390244E+02  0.11713179E+02  0.50000000E+00  0.00000000E+00
  0.00000000E+00  0.22390244E+02  0.12689277E+02  0.50000000E+00  0.00000000E+00
  0.00000000E+00  0.22390244E+02  0.13665375E+02  0.50000000E+00  0.00000000E+00
  0.00000000E+00  0.22390244E+02  0.14641473E+02  0.50000000E+00  0.00000000E+00
  0.00000000E+00  0.22390244E+02  0.15617571E+02  0.50000000E+00  0.00000000E+00
  0.00000000E+00  0.22390244E+02  0.16593670E+02  0.50000000E+00  0.00000000E+00
  0.00000000E+00  0.22390244E+02  0.17569768E+02  0.50000000E+00  0.00000000E+00
  0.00000000E+00  0.22390244E+02  0.18545866E+02  0.50000000E+00  0.00000000E+00
  0.00000000E+00  0.22390244E+02  0.19521964E+02  0.50000000E+00  0.00000000E+00
  0.00000000E+00  0.22390244E+02  0.20498063E+02  0.49803873E+00 -0.98901534E-10
  0.00000000E+00  0.24878049E+02  0.00000000E+00  0.50000000E+00  0.00000000E+00
  0.00000000E+00  0.24878049E+02  0.97609069E+00  0.50000000E+00  0.00000000E+00
  0.00000000E+00  0.24878049E+02  0.19521814E+01  0.50000000E+00  0.00000000E+00
  0.00000000E+00  0.24878049E+02  0.29282721E+01  0.50000000E+00  0.00000000E+00
  0.00000000E+00  0.24878049E+02  0.39043627E+01  0.50000000E+00  0.00000000E+00
  0.00000000E+00  0.24878049E+02  0.48804534E+01  0.50000000E+00  0.00000000E+00
  0.00000000E+00  0.24878049E+02  0.58565441E+01  0.50000000E+00  0.00000000E+00
  0.00000000E+00  0.24878049E+02  0.68326348E+01  0.50000000E+00  0.00000000E+00
  0.00000000E+00  0.24878049E+02  0.78087255E+01  0.50000000E+00  0.00000000E+00
  0.00000000E+00  0.24878049E+02  0.87848162E+01  0.50000000E+00  0.00000000E+00
  0.00000000E+00  0.24878049E+02  0.97609069E+01  0.50000000E+00  0.00000000E+00
  0.00000000E+00  0.24878049E+02  0.10736998E+02  0.50000000E+00  0.00000000E+00
  0.00000000E+00  0.24878049E+02  0.11713088E+02  0.50000000E+00  0.00000000E+00
  0.00000000E+00  0.24878049E+02  0.12689179E+02  0.50000000E+00  0.00000000E+00
  0.00000000E+00  0.24878049E+02  0.13665270E+02  0.50000000E+00  0.00000000E+00
  0.00000000E+00  0.24878049E+02  0.14641360E+02  0.50000000E+00  0.00000000E+00
  0.00000000E+00  0.24878049E+02  0.15617451E+02  0.50000000E+00  0.00000000E+00
  0.00000000E+00  0.24878049E+02  0.16593542E+02  0.50000000E+00  0.00000000E+00
  0.00000000E+00  0.24878049E+02  0.17569632E+02  0.50000000E+00  0.00000000E+00
  0.00000000E+00  0.24878049E+02  0.18545723E+02  0.50000000E+00  0.00000000E+00
  0.00000000E+00  0.24878049E+02  0.19521814E+02  0.50000000E+00  0.00000000E+00
  0.00000000E+00  0.24878049E+02  0.20497904E+02  0.49787909E+00 -0.85053491E-10
  0.00000000E+00  0.27365854E+02  0.00000000E+00  0.50000000E+00  0.00000000E+00
  0.00000000E+00  0.27365854E+02  0.97608236E+00  0.50000000E+00  0.00000000E+00
  0.00000000E+00  0.27365854E+02  0.19521647E+01  0.50000000E+00  0.00000000E+00
  0.00000000E+00  0.27365854E+02  0.29282471E+01  0.50000000E+00  0.00000000E+00
  0.00000000E+00  0.27365854E+02  0.39043294E+01  0.50000000E+00  0.00000000E+00
  0.00000000E+00  0.27365854E+02  0.48804118E+01  0.50000000E+00  0.00000000E+00
  0.00000000E+00  0.27365854E+02  0.58564942E+01  0.50000000E+00  0.00000000E+00
  0.00000000E+00  0.27365854E+02  0.68325765E+01  0.50000000E+00  0.00000000E+00
  0.00000000E+00  0.27365854E+02  0.78086589E+01  0.50000000E+00  0.00000000E+00
  0.00000000E+00  0.27365854E+02  0.87847412E+01  0.50000000E+00  0.00000000E+00
  0.00000000E+00  0.27365854E+02  0.97608236E+01  0.50000000E+00  0.00000000E+00
  0.00000000E+00  0.27365854E+02  0.10736906E+02  0.50000000E+00  0.00000000E+00
  0.00000000E+00  0.27365854E+02  0.11712988E+02  0.50000000E+00  0.00000000E+00
  0.00000000E+00  0.27365854E+02  0.12689071E+02  0.50000000E+00  0.00000000E+00
  0.00000000E+00  0.27365854E+02  0.13665153E+02  0.50000000E+00  0.00000000E+00
  0.00000000E+00  0.27365854E+02  0.14641235E+02  0.50000000E+00  0.00000000E+00
  0.00000000E+00  0.27365854E+02  0.15617318E+02  0.50000000E+00  0.00000000E+00
  0.00000000E+00  0.27365854E+02  0.16593400E+02  0.50000000E+00  0.00000000E+00
  0.00000000E+00  0.27365854E+02  0.17569482E+02  0.50000000E+00  0.00000000E+00
  0.00000000E+00  0.27365854E+02  0.18545565E+02  0.50000000E+00  0.00000000E+00
  0.00000000E+00  0.27365854E+02  0.19521647E+02  0.50000000E+00  0.00000000E+00
  0.00000000E+00  0.27365854E+02  0.20497730E+02  0.49770278E+00 -0.63735434E-10
  0.00000000E+00  0.29853659E+02  0.00000000E+00  0.50000000E+00  0.00000000E+00
  0.00000000E+00  0.29853659E+02  0.97609256E+00  0.50000000E+00  0.00000000E+00
  0.00000000E+00  0.29853659E+02  0.19521851E+01  0.50000000E+00  0.00000000E+00
  0.00000000E+00  0.29853659E+02  0.29282777E+01  0.50000000E+00  0.00000000E+00
  0.00000000E+00  0.29853659E+02  0.39043702E+01  0.50000000E+00  0.00000000E+00
  0.00000000E+00  0.29853659E+02  0.48804628E+01  0.50000000E+00  0.00000000E+00
  0.00000000E+00  0.29853659E+02  0.58565554E+01  0.50000000E+00  0.00000000E+00
  0.00000000E+00  0.29853659E+02  0.68326479E+01  0.50000000E+00  0.00000000E+00
  0.00000000E+00  0.29853659E+02  0.78087405E+01  0.50000000E+00  0.00000000E+00
  0.00000000E+00  0.29853659E+02  0.87848330E+01  0.50000000E+00  0.00000000E+00
  0.00000000E+00  0.29853659E+02  0.97609256E+01  0.50000000E+00  0.00000000E+00
  0.00000000E+00  0.29853659E+02  0.10737018E+02  0.50000000E+00  0.00000000E+00
  0.00000000E+00  0.29853659E+02  0.11713111E+02  0.50000000E+00  0.00000000E+00
  0.00000000E+00  0.29853659E+02  0.12689203E+02  0.50000000E+00  0.00000000E+00
  0.00000000E+00  0.29853659E+02  0.13665296E+02  0.50000000E+00  0.00000000E+00
  0.00000000E+00  0.29853659E+02  0.14641388E+02  0.50000000E+00  0.00000000E+00
  0.00000000E+00  0.29853659E+02  0.15617481E+02  0.50000000E+00  0.00000000E+00
  0.00000000E+00  0.29853659E+02  0.16593573E+02  0.50000000E+00  0.00000000E+00
  0.00000000E+00  0.29853659E+02  0.17569666E+02  0.50000000E+00  0.00000000E+00
  0.00000000E+00  0.29853659E+02  0.18545759E+02  0.50000000E+00  0.00000000E+00
  0.00000000E+00  0.29853659E+02  0.19521851E+02  0.50000000E+00  0.00000000E+00
  0.00000000E+00  0.29853659E+02  0.20497944E+02  0.49791944E+00 -0.47056224E-10
  0.00000000E+00  0.32341463E+02  0.00000000E+00  0.50000000E+00  0.00000000E+00
  0.00000000E+00  0.32341463E+02  0.97610744E+00  0.50000000E+00  0.00000000E+00
  0.00000000E+00  0.32341463E+02  0.19522149E+01  0.50000000E+00  0.00000000E+00
  0.00000000E+00  0.32341463E+02  0.29283223E+01  0.50000000E+00  0.00000000E+00
  0.00000000E+00  0.32341463E+02  0.39044298E+01  0.50000000E+00  0.00000000E+00
  0.00000000E+00  0.32341463E+02  0.48805372E+01  0.50000000E+00  0.00000000E+00
  0.00000000E+00  0.32341463E+02  0.58566446E+01  0.50000000E+00  0.00000000E+00
  0.00000000E+00  0.32341463E+02  0.68327521E+01  0.50000000E+00  0.00000000E+00
  0.00000000E+00  0.32341463E+02  0.78088595E+01  0.50000000E+00  0.00000000E+00
  0.00000000E+00  0.32341463E+02  0.87849669E+01  0.50000000E+00  0.00000000E+00
  0.00000000E+00  0.32341463E+02  0.97610744E+01  0.50000000E+00  0.00000000E+00
  0.00000000E+00  0.32341463E+02  0.10737182E+02  0.50000000E+00  0.00000000E+00
  0.00000000E+00  0.32341463E+02  0.11713289E+02  0.50000000E+00  0.00000000E+00
  0.00000000E+00  0.32341463E+02  0.12689397E+02  0.50000000E+00  0.00000000E+00
  0.00000000E+00  0.32341463E+02  0.13665504E+02  0.50000000E+00  0.00000000E+00
  0.00000000E+00  0.32341463E+02  0.14641612E+02  0.50000000E+00  0.00000000E+00
  0.00000000E+00  0.32341463E+02  0.15617719E+02  0.50000000E+00  0.00000000E+00
  0.00000000E+00  0.32341463E+02  0.16593826E+02  0.50000000E+00  0.00000000E+00
  0.00000000E+00  0.32341463E+02  0.17569934E+02  0.50000000E+00  0.00000000E+00
  0.00000000E+00  0.32341463E+02  0.18546041E+02  0.50000000E+00  0.00000000E+00
  0.00000000E+00  0.32341463E+02  0.19522149E+02  0.50000000E+00  0.00000000E+00
  0.00000000E+00  0.32341463E+02  0.20498256E+02  0.49823523E+00 -0.44856485E-10
  0.00000000E+00  0.34829268E+02  0.00000000E+00  0.50000000E+00  0.00000000E+00
  0.00000000E+00  0.34829268E+02  0.97611382E+00  0.50000000E+00  0.00000000E+00
  0.00000000E+00  0.34829268E+02  0.19522276E+01  0.50000000E+00  0.00000000E+00
  0.00000000E+00  0.34829268E+02  0.29283414E+01  0.50000000E+00  0.00000000E+00
  0.00000000E+00  0.34829268E+02  0.39044553E+01  0.50000000E+00  0.00000000E+00
  0.00000000E+00  0.34829268E+02  0.48805691E+01  0.50000000E+00  0.00000000E+00
  0.00000000E+00  0.34829268E+02  0.58566829E+01  0.50000000E+00  0.00000000E+00
  0.00000000E+00  0.34829268E+02  0.68327967E+01  0.50000000E+00  0.00000000E+00
  0.00000000E+00  0.34829268E+02  0.78089105E+01  0.50000000E+00  0.00000000E+00
  0.00000000E+00  0.34829268E+02  0.87850243E+01  0.50000000E+00  0.00000000E+00
  0.00000000E+00  0.34829268E+02  0.97611382E+01  0.50000000E+00  0.00000000E+00
  0.00000000E+00  0.34829268E+02  0.10737252E+02  0.50000000E+00  0.00000000E+00
  0.00000000E+00  0.34829268E+02  0.11713366E+02  0.50000000E+00  0.00000000E+00
  0.00000000E+00  0.34829268E+02  0.12689480E+02  0.50000000E+00  0.00000000E+00
  0.00000000E+00  0.34829268E+02  0.13665593E+02  0.50000000E+00  0.00000000E+00
  0.00000000E+00  0.34829268E+02  0.14641707E+02  0.50000000E+00  0.00000000E+00
  0.00000000E+00  0.34829268E+02  0.15617821E+02  0.50000000E+00  0.00000000E+00
  0.00000000E+00  0.34829268E+02  0.16593935E+02  0.50000000E+00  0.00000000E+00
  0.00000000E+00  0.34829268E+02  0.17570049E+02  0.50000000E+00  0.00000000E+00
  0.00000000E+00  0.34829268E+02  0.18546162E+02  0.50000000E+00  0.00000000E+00
  0.00000000E+00  0.34829268E+02  0.19522276E+02  0.50000000E+00  0.00000000E+00
  0.00000000E+00  0.34829268E+02  0.20498390E+02  0.49836977E+00 -0.62678694E-10
  0.00000000E+00  0.37317073E+02  0.00000000E+00  0.50000000E+00  0.00000000E+00
  0.00000000E+00  0.37317073E+02  0.97613941E+00  0.50000000E+00  0.00000000E+00
  0.00000000E+00  0.37317073E+02  0.19522788E+01  0.50000000E+00  0.00000000E+00
  0.00000000E+00  0.37317073E+02  0.29284182E+01  0.50000000E+00  0.00000000E+00
  0.00000000E+00  0.37317073E+02  0.39045577E+01  0.50000000E+00  0.00000000E+00
  0.00000000E+00  0.37317073E+02  0.48806971E+01  0.50000000E+00  0.00000000E+00
  0.00000000E+00  0.37317073E+02  0.58568365E+01  0.50000000E+00  0.00000000E+00
  0.00000000E+00  0.37317073E+02  0.68329759E+01  0.50000000E+00  0.00000000E+00
  0.00000000E+00  0.37317073E+02  0.78091153E+01  0.50000000E+00  0.00000000E+00
  0.00000000E+00  0.37317073E+02  0.87852547E+01  0.50000000E+00  0.00000000E+00
  0.00000000E+00  0.37317073E+02  0.97613941E+01  0.50000000E+00  0.00000000E+00
  0.00000000E+00  0.37317073E+02  0.10737534E+02  0.50000000E+00  0.00000000E+00
  0.00000000E+00  0.37317073E+02  0.11713673E+02  0.50000000E+00  0.00000000E+00
  0.00000000E+00  0.37317073E+02  0.12689812E+02  0.50000000E+00  0.00000000E+00
  0.00000000E+00  0.37317073E+02  0.13665952E+02  0.50000000E+00  0.00000000E+00
  0.00000000E+00  0.37317073E+02  0.14642091E+02  0.50000000E+00  0.00000000E+00
  0.00000000E+00  0.37317073E+02  0.15618231E+02  0.50000000E+00  0.00000000E+00
  0.00000000E+00  0.37317073E+02  0.16594370E+02  0.50000000E+00  0.00000000E+00
  0.00000000E+00  0.37317073E+02  0.17570509E+02  0.50000000E+00  0.00000000E+00
  0.00000000E+00  0.37317073E+02  0.18546649E+02  0.50000000E+00  0.00000000E+00
  0.00000000E+00  0.37317073E+02  0.19522788E+02  0.50000000E+00  0.00000000E+00
  0.00000000E+00  0.37317073E+02  0.20498928E+02  0.49891065E+00 -0.96031866E-10
  0.00000000E+00  0.39804878E+02  0.00000000E+00  0.50000000E+00  0.00000000E+00
  0.00000000E+00  0.39804878E+02  0.97614332E+00  0.50000000E+00  0.00000000E+00
  0.00000000E+00  0.39804878E+02  0.19522866E+01  0.50000000E+00  0.00000000E+00
  0.00000000E+00  0.39804878E+02  0.29284300E+01  0.50000000E+00  0.00000000E+00
  0.00000000E+00  0.39804878E+02  0.39045733E+01  0.50000000E+00  0.00000000E+00
  0.00000000E+00  0.39804878E+02  0.48807166E+01  0.50000000E+00  0.00000000E+00
  0.00000000E+00  0.39804878E+02  0.58568599E+01  0.50000000E+00  0.00000000E+00
  0.00000000E+00  0.39804878E+02  0.68330033E+01  0.50000000E+00  0.00000000E+00
  0.00000000E+00  0.39804878E+02  0.78091466E+01  0.50000000E+00  0.00000000E+00
  0.00000000E+00  0.39804878E+02  0.87852899E+01  0.50000000E+00  0.00000000E+00
  0.00000000E+00  0.39804878E+02  0.97614332E+01  0.50000000E+00  0.00000000E+00
  0.00000000E+00  0.39804878E+02  0.10737577E+02  0.50000000E+00  0.00000000E+00
  0.00000000E+00  0.39804878E+02  0.11713720E+02  0.50000000E+00  0.00000000E+00
  0.00000000E+00  0.39804878E+02  0.12689863E+02  0.50000000E+00  0.00000000E+00
  0.00000000E+00  0.39804878E+02  0.13666007E+02  0.50000000E+00  0.00000000E+00
  0.00000000E+00  0.39804878E+02  0.14642150E+02  0.50000000E+00  0.00000000E+00