title="2d K section "
variables="x","z","Kx","logKx","Kz","logKz","porosity"
zone i=    22, j=    42,T="Initial K at t=0"
   0.0000000E+00   0.0000000E+00   0.1797372E-04  -0.4745362E+01   0.1797372E-04  -0.4745362E+01   0.3000000E+00
   0.0000000E+00   0.9761905E+00   0.1887448E-04  -0.4724125E+01   0.1887448E-04  -0.4724125E+01   0.3000000E+00
   0.0000000E+00   0.1952381E+01   0.2451072E-04  -0.4610644E+01   0.2451072E-04  -0.4610644E+01   0.3000000E+00
   0.0000000E+00   0.2928571E+01   0.1591259E-04  -0.4798259E+01   0.1591259E-04  -0.4798259E+01   0.3000000E+00
   0.0000000E+00   0.3904762E+01   0.6081951E-04  -0.4215957E+01   0.6081951E-04  -0.4215957E+01   0.3000000E+00
   0.0000000E+00   0.4880952E+01   0.8046405E-04  -0.4094398E+01   0.8046405E-04  -0.4094398E+01   0.3000000E+00
   0.0000000E+00   0.5857143E+01   0.1803854E-04  -0.4743799E+01   0.1803854E-04  -0.4743799E+01   0.3000000E+00
   0.0000000E+00   0.6833333E+01   0.5762812E-04  -0.4239366E+01   0.5762812E-04  -0.4239366E+01   0.3000000E+00
   0.0000000E+00   0.7809524E+01   0.4529110E-04  -0.4343987E+01   0.4529110E-04  -0.4343987E+01   0.3000000E+00
   0.0000000E+00   0.8785714E+01   0.2426926E-04  -0.4614943E+01   0.2426926E-04  -0.4614943E+01   0.3000000E+00
   0.0000000E+00   0.9761905E+01   0.6812270E-04  -0.4166708E+01   0.6812270E-04  -0.4166708E+01   0.3000000E+00
   0.0000000E+00   0.1073810E+02   0.2711714E-07  -0.7566756E+01   0.2711714E-07  -0.7566756E+01   0.3000000E+00
   0.0000000E+00   0.1171429E+02   0.2432649E-07  -0.7613921E+01   0.2432649E-07  -0.7613921E+01   0.3000000E+00
   0.0000000E+00   0.1269048E+02   0.1082524E-06  -0.6965562E+01   0.1082524E-06  -0.6965562E+01   0.3000000E+00
   0.0000000E+00   0.1366667E+02   0.2681016E-06  -0.6571701E+01   0.2681016E-06  -0.6571701E+01   0.3000000E+00
   0.0000000E+00   0.1464286E+02   0.9328561E-07  -0.7030185E+01   0.9328561E-07  -0.7030185E+01   0.3000000E+00
   0.0000000E+00   0.1561905E+02   0.9632189E-05  -0.5016275E+01   0.9632189E-05  -0.5016275E+01   0.3000000E+00
   0.0000000E+00   0.1659524E+02   0.9534440E-05  -0.5020705E+01   0.9534440E-05  -0.5020705E+01   0.3000000E+00
   0.0000000E+00   0.1757143E+02   0.8941564E-05  -0.5048586E+01   0.8941564E-05  -0.5048586E+01   0.3000000E+00
   0.0000000E+00   0.1854762E+02   0.9251730E-05  -0.5033777E+01   0.9251730E-05  -0.5033777E+01   0.3000000E+00
   0.0000000E+00   0.1952381E+02   0.2931240E-04  -0.4532949E+01   0.2931240E-04  -0.4532949E+01   0.3000000E+00
   0.0000000E+00   0.2050000E+02   0.2931240E-04  -0.4532949E+01   0.2931240E-04  -0.4532949E+01   0.3000000E+00
   0.2487805E+01   0.0000000E+00   0.2460404E-04  -0.4608994E+01   0.2460404E-04  -0.4608994E+01   0.3000000E+00
   0.2487805E+01   0.9761905E+00   0.1188540E-04  -0.4924986E+01   0.1188540E-04  -0.4924986E+01   0.3000000E+00
   0.2487805E+01   0.1952381E+01   0.2861441E-04  -0.4543415E+01   0.2861441E-04  -0.4543415E+01   0.3000000E+00
   0.2487805E+01   0.2928571E+01   0.5425584E-04  -0.4265554E+01   0.5425584E-04  -0.4265554E+01   0.3000000E+00
   0.2487805E+01   0.3904762E+01   0.6856694E-04  -0.4163885E+01   0.6856694E-04  -0.4163885E+01   0.3000000E+00
   0.2487805E+01   0.4880952E+01   0.1086477E-03  -0.3963979E+01   0.1086477E-03  -0.3963979E+01   0.3000000E+00
   0.2487805E+01   0.5857143E+01   0.5415826E-04  -0.4266335E+01   0.5415826E-04  -0.4266335E+01   0.3000000E+00
   0.2487805E+01   0.6833333E+01   0.6203573E-04  -0.4207358E+01   0.6203573E-04  -0.4207358E+01   0.3000000E+00
   0.2487805E+01   0.7809524E+01   0.8038363E-04  -0.4094832E+01   0.8038363E-04  -0.4094832E+01   0.3000000E+00
   0.2487805E+01   0.8785714E+01   0.7897336E-04  -0.4102519E+01   0.7897336E-04  -0.4102519E+01   0.3000000E+00
   0.2487805E+01   0.9761905E+01   0.1320936E-03  -0.3879118E+01   0.1320936E-03  -0.3879118E+01   0.3000000E+00
   0.2487805E+01   0.1073810E+02   0.4388470E-07  -0.7357687E+01   0.4388470E-07  -0.7357687E+01   0.3000000E+00
   0.2487805E+01   0.1171429E+02   0.3738486E-07  -0.7427304E+01   0.3738486E-07  -0.7427304E+01   0.3000000E+00
   0.2487805E+01   0.1269048E+02   0.6876988E-07  -0.7162602E+01   0.6876988E-07  -0.7162602E+01   0.3000000E+00
   0.2487805E+01   0.1366667E+02   0.2787362E-06  -0.6554807E+01   0.2787362E-06  -0.6554807E+01   0.3000000E+00
   0.2487805E+01   0.1464286E+02   0.8061588E-05  -0.5093579E+01   0.8061588E-05  -0.5093579E+01   0.3000000E+00
   0.2487805E+01   0.1561905E+02   0.1530394E-04  -0.4815197E+01   0.1530394E-04  -0.4815197E+01   0.3000000E+00
   0.2487805E+01   0.1659524E+02   0.9948388E-05  -0.5002247E+01   0.9948388E-05  -0.5002247E+01   0.3000000E+00
   0.2487805E+01   0.1757143E+02   0.7783535E-05  -0.5108823E+01   0.7783535E-05  -0.5108823E+01   0.3000000E+00
   0.2487805E+01   0.1854762E+02   0.1192588E-04  -0.4923510E+01   0.1192588E-04  -0.4923510E+01   0.3000000E+00
   0.2487805E+01   0.1952381E+02   0.2100605E-04  -0.4677656E+01   0.2100605E-04  -0.4677656E+01   0.3000000E+00
   0.2487805E+01   0.2050000E+02   0.2100605E-04  -0.4677656E+01   0.2100605E-04  -0.4677656E+01   0.3000000E+00
   0.4975610E+01   0.0000000E+00   0.2244820E-04  -0.4648818E+01   0.2244820E-04  -0.4648818E+01   0.3000000E+00
   0.4975610E+01   0.9761905E+00   0.1799890E-04  -0.4744754E+01   0.1799890E-04  -0.4744754E+01   0.3000000E+00
   0.4975610E+01   0.1952381E+01   0.3295723E-04  -0.4482049E+01   0.3295723E-04  -0.4482049E+01   0.3000000E+00
   0.4975610E+01   0.2928571E+01   0.3016585E-04  -0.4520484E+01   0.3016585E-04  -0.4520484E+01   0.3000000E+00
   0.4975610E+01   0.3904762E+01   0.9544122E-04  -0.4020264E+01   0.9544122E-04  -0.4020264E+01   0.3000000E+00
   0.4975610E+01   0.4880952E+01   0.8676563E-04  -0.4061652E+01   0.8676563E-04  -0.4061652E+01   0.3000000E+00
   0.4975610E+01   0.5857143E+01   0.8086738E-04  -0.4092227E+01   0.8086738E-04  -0.4092227E+01   0.3000000E+00
   0.4975610E+01   0.6833333E+01   0.1292580E-03  -0.3888543E+01   0.1292580E-03  -0.3888543E+01   0.3000000E+00
   0.4975610E+01   0.7809524E+01   0.1808758E-03  -0.3742620E+01   0.1808758E-03  -0.3742620E+01   0.3000000E+00
   0.4975610E+01   0.8785714E+01   0.2160502E-03  -0.3665445E+01   0.2160502E-03  -0.3665445E+01   0.3000000E+00
   0.4975610E+01   0.9761905E+01   0.7664701E-04  -0.4115505E+01   0.7664701E-04  -0.4115505E+01   0.3000000E+00
   0.4975610E+01   0.1073810E+02   0.2467686E-07  -0.7607710E+01   0.2467686E-07  -0.7607710E+01   0.3000000E+00
   0.4975610E+01   0.1171429E+02   0.8069413E-07  -0.7093158E+01   0.8069413E-07  -0.7093158E+01   0.3000000E+00
   0.4975610E+01   0.1269048E+02   0.8962783E-07  -0.7047557E+01   0.8962783E-07  -0.7047557E+01   0.3000000E+00
   0.4975610E+01   0.1366667E+02   0.4670568E-07  -0.7330630E+01   0.4670568E-07  -0.7330630E+01   0.3000000E+00
   0.4975610E+01   0.1464286E+02   0.1686956E-04  -0.4772896E+01   0.1686956E-04  -0.4772896E+01   0.3000000E+00
   0.4975610E+01   0.1561905E+02   0.1748792E-04  -0.4757262E+01   0.1748792E-04  -0.4757262E+01   0.3000000E+00
   0.4975610E+01   0.1659524E+02   0.1422087E-04  -0.4847074E+01   0.1422087E-04  -0.4847074E+01   0.3000000E+00
   0.4975610E+01   0.1757143E+02   0.1585065E-04  -0.4799953E+01   0.1585065E-04  -0.4799953E+01   0.3000000E+00
   0.4975610E+01   0.1854762E+02   0.2039135E-04  -0.4690554E+01   0.2039135E-04  -0.4690554E+01   0.3000000E+00
   0.4975610E+01   0.1952381E+02   0.2247965E-04  -0.4648210E+01   0.2247965E-04  -0.4648210E+01   0.3000000E+00
   0.4975610E+01   0.2050000E+02   0.2247965E-04  -0.4648210E+01   0.2247965E-04  -0.4648210E+01   0.3000000E+00
   0.7463415E+01   0.0000000E+00   0.2468043E-04  -0.4607647E+01   0.2468043E-04  -0.4607647E+01   0.3000000E+00
   0.7463415E+01   0.9761905E+00   0.4899462E-04  -0.4309852E+01   0.4899462E-04  -0.4309852E+01   0.3000000E+00
   0.7463415E+01   0.1952381E+01   0.5224324E-04  -0.4281970E+01   0.5224324E-04  -0.4281970E+01   0.3000000E+00
   0.7463415E+01   0.2928571E+01   0.5674177E-04  -0.4246097E+01   0.5674177E-04  -0.4246097E+01   0.3000000E+00
   0.7463415E+01   0.3904762E+01   0.6640090E-04  -0.4177826E+01   0.6640090E-04  -0.4177826E+01   0.3000000E+00
   0.7463415E+01   0.4880952E+01   0.5001438E-04  -0.4300905E+01   0.5001438E-04  -0.4300905E+01   0.3000000E+00
   0.7463415E+01   0.5857143E+01   0.4973508E-04  -0.4303337E+01   0.4973508E-04  -0.4303337E+01   0.3000000E+00
   0.7463415E+01   0.6833333E+01   0.1564772E-03  -0.3805549E+01   0.1564772E-03  -0.3805549E+01   0.3000000E+00
   0.7463415E+01   0.7809524E+01   0.2324582E-03  -0.3633655E+01   0.2324582E-03  -0.3633655E+01   0.3000000E+00
   0.7463415E+01   0.8785714E+01   0.2014237E-03  -0.3695889E+01   0.2014237E-03  -0.3695889E+01   0.3000000E+00
   0.7463415E+01   0.9761905E+01   0.1191533E-03  -0.3923894E+01   0.1191533E-03  -0.3923894E+01   0.3000000E+00
   0.7463415E+01   0.1073810E+02   0.3394243E-07  -0.7469257E+01   0.3394243E-07  -0.7469257E+01   0.3000000E+00
   0.7463415E+01   0.1171429E+02   0.6563872E-07  -0.7182840E+01   0.6563872E-07  -0.7182840E+01   0.3000000E+00
   0.7463415E+01   0.1269048E+02   0.8413022E-07  -0.7075048E+01   0.8413022E-07  -0.7075048E+01   0.3000000E+00
   0.7463415E+01   0.1366667E+02   0.2512255E-07  -0.7599936E+01   0.2512255E-07  -0.7599936E+01   0.3000000E+00
   0.7463415E+01   0.1464286E+02   0.2044239E-04  -0.4689468E+01   0.2044239E-04  -0.4689468E+01   0.3000000E+00
   0.7463415E+01   0.1561905E+02   0.1886316E-04  -0.4724386E+01   0.1886316E-04  -0.4724386E+01   0.3000000E+00
   0.7463415E+01   0.1659524E+02   0.1840846E-04  -0.4734982E+01   0.1840846E-04  -0.4734982E+01   0.3000000E+00
   0.7463415E+01   0.1757143E+02   0.1578580E-04  -0.4801734E+01   0.1578580E-04  -0.4801734E+01   0.3000000E+00
   0.7463415E+01   0.1854762E+02   0.1676361E-04  -0.4775632E+01   0.1676361E-04  -0.4775632E+01   0.3000000E+00
   0.7463415E+01   0.1952381E+02   0.1609503E-04  -0.4793308E+01   0.1609503E-04  -0.4793308E+01   0.3000000E+00
   0.7463415E+01   0.2050000E+02   0.1609503E-04  -0.4793308E+01   0.1609503E-04  -0.4793308E+01   0.3000000E+00
   0.9951220E+01   0.0000000E+00   0.4331550E-04  -0.4363357E+01   0.4331550E-04  -0.4363357E+01   0.3000000E+00
   0.9951220E+01   0.9761905E+00   0.6000396E-04  -0.4221820E+01   0.6000396E-04  -0.4221820E+01   0.3000000E+00
   0.9951220E+01   0.1952381E+01   0.1448807E-03  -0.3838990E+01   0.1448807E-03  -0.3838990E+01   0.3000000E+00
   0.9951220E+01   0.2928571E+01   0.1264833E-03  -0.3897967E+01   0.1264833E-03  -0.3897967E+01   0.3000000E+00
   0.9951220E+01   0.3904762E+01   0.1322786E-03  -0.3878510E+01   0.1322786E-03  -0.3878510E+01   0.3000000E+00
   0.9951220E+01   0.4880952E+01   0.3453629E-04  -0.4461724E+01   0.3453629E-04  -0.4461724E+01   0.3000000E+00
   0.9951220E+01   0.5857143E+01   0.5768000E-04  -0.4238975E+01   0.5768000E-04  -0.4238975E+01   0.3000000E+00
   0.9951220E+01   0.6833333E+01   0.6720251E-04  -0.4172615E+01   0.6720251E-04  -0.4172615E+01   0.3000000E+00
   0.9951220E+01   0.7809524E+01   0.9660307E-04  -0.4015009E+01   0.9660307E-04  -0.4015009E+01   0.3000000E+00
   0.9951220E+01   0.8785714E+01   0.1195113E-03  -0.3922591E+01   0.1195113E-03  -0.3922591E+01   0.3000000E+00
   0.9951220E+01   0.9761905E+01   0.9669972E-04  -0.4014575E+01   0.9669972E-04  -0.4014575E+01   0.3000000E+00
   0.9951220E+01   0.1073810E+02   0.1809917E-07  -0.7742341E+01   0.1809917E-07  -0.7742341E+01   0.3000000E+00
   0.9951220E+01   0.1171429E+02   0.3977608E-07  -0.7400378E+01   0.3977608E-07  -0.7400378E+01   0.3000000E+00
   0.9951220E+01   0.1269048E+02   0.5004642E-08  -0.8300627E+01   0.5004642E-08  -0.8300627E+01   0.3000000E+00
   0.9951220E+01   0.1366667E+02   0.6986403E-08  -0.8155746E+01   0.6986403E-08  -0.8155746E+01   0.3000000E+00
   0.9951220E+01   0.1464286E+02   0.2360387E-04  -0.4627017E+01   0.2360387E-04  -0.4627017E+01   0.3000000E+00
   0.9951220E+01   0.1561905E+02   0.9417885E-05  -0.5026047E+01   0.9417885E-05  -0.5026047E+01   0.3000000E+00
   0.9951220E+01   0.1659524E+02   0.1489925E-04  -0.4826836E+01   0.1489925E-04  -0.4826836E+01   0.3000000E+00
   0.9951220E+01   0.1757143E+02   0.1095078E-04  -0.4960555E+01   0.1095078E-04  -0.4960555E+01   0.3000000E+00
   0.9951220E+01   0.1854762E+02   0.1807827E-04  -0.4742843E+01   0.1807827E-04  -0.4742843E+01   0.3000000E+00
   0.9951220E+01   0.1952381E+02   0.2885579E-04  -0.4539767E+01   0.2885579E-04  -0.4539767E+01   0.3000000E+00
   0.9951220E+01   0.2050000E+02   0.2885579E-04  -0.4539767E+01   0.2885579E-04  -0.4539767E+01   0.3000000E+00
   0.1243902E+02   0.0000000E+00   0.6167080E-04  -0.4209920E+01   0.6167080E-04  -0.4209920E+01   0.3000000E+00
   0.1243902E+02   0.9761905E+00   0.1328354E-03  -0.3876686E+01   0.1328354E-03  -0.3876686E+01   0.3000000E+00
   0.1243902E+02   0.1952381E+01   0.1120237E-03  -0.3950690E+01   0.1120237E-03  -0.3950690E+01   0.3000000E+00
   0.1243902E+02   0.2928571E+01   0.3638332E-04  -0.4439098E+01   0.3638332E-04  -0.4439098E+01   0.3000000E+00
   0.1243902E+02   0.3904762E+01   0.6836155E-04  -0.4165188E+01   0.6836155E-04  -0.4165188E+01   0.3000000E+00
   0.1243902E+02   0.4880952E+01   0.1517441E-04  -0.4818888E+01   0.1517441E-04  -0.4818888E+01   0.3000000E+00
   0.1243902E+02   0.5857143E+01   0.5105026E-04  -0.4292002E+01   0.5105026E-04  -0.4292002E+01   0.3000000E+00
   0.1243902E+02   0.6833333E+01   0.3543892E-04  -0.4450520E+01   0.3543892E-04  -0.4450520E+01   0.3000000E+00
   0.1243902E+02   0.7809524E+01   0.7108032E-04  -0.4148251E+01   0.7108032E-04  -0.4148251E+01   0.3000000E+00
   0.1243902E+02   0.8785714E+01   0.8369762E-04  -0.4077287E+01   0.8369762E-04  -0.4077287E+01   0.3000000E+00
   0.1243902E+02   0.9761905E+01   0.4351086E-04  -0.4361402E+01   0.4351086E-04  -0.4361402E+01   0.3000000E+00
   0.1243902E+02   0.1073810E+02   0.3399678E-07  -0.7468562E+01   0.3399678E-07  -0.7468562E+01   0.3000000E+00
   0.1243902E+02   0.1171429E+02   0.2535474E-07  -0.7595941E+01   0.2535474E-07  -0.7595941E+01   0.3000000E+00
   0.1243902E+02   0.1269048E+02   0.8211748E-08  -0.8085564E+01   0.8211748E-08  -0.8085564E+01   0.3000000E+00
   0.1243902E+02   0.1366667E+02   0.7539575E-08  -0.8122653E+01   0.7539575E-08  -0.8122653E+01   0.3000000E+00
   0.1243902E+02   0.1464286E+02   0.3808462E-04  -0.4419250E+01   0.3808462E-04  -0.4419250E+01   0.3000000E+00
   0.1243902E+02   0.1561905E+02   0.2099555E-04  -0.4677873E+01   0.2099555E-04  -0.4677873E+01   0.3000000E+00
   0.1243902E+02   0.1659524E+02   0.2729519E-04  -0.4563914E+01   0.2729519E-04  -0.4563914E+01   0.3000000E+00
   0.1243902E+02   0.1757143E+02   0.1203971E-04  -0.4919384E+01   0.1203971E-04  -0.4919384E+01   0.3000000E+00
   0.1243902E+02   0.1854762E+02   0.1001126E-04  -0.4999511E+01   0.1001126E-04  -0.4999511E+01   0.3000000E+00
   0.1243902E+02   0.1952381E+02   0.3153224E-04  -0.4501245E+01   0.3153224E-04  -0.4501245E+01   0.3000000E+00
   0.1243902E+02   0.2050000E+02   0.3153224E-04  -0.4501245E+01   0.3153224E-04  -0.4501245E+01   0.3000000E+00
   0.1492683E+02   0.0000000E+00   0.9463341E-04  -0.4023956E+01   0.9463341E-04  -0.4023956E+01   0.3000000E+00
   0.1492683E+02   0.9761905E+00   0.1361573E-03  -0.3865959E+01   0.1361573E-03  -0.3865959E+01   0.3000000E+00
   0.1492683E+02   0.1952381E+01   0.1078359E-03  -0.3967237E+01   0.1078359E-03  -0.3967237E+01   0.3000000E+00
   0.1492683E+02   0.2928571E+01   0.4645623E-04  -0.4332956E+01   0.4645623E-04  -0.4332956E+01   0.3000000E+00
   0.1492683E+02   0.3904762E+01   0.3388968E-04  -0.4469933E+01   0.3388968E-04  -0.4469933E+01   0.3000000E+00
   0.1492683E+02   0.4880952E+01   0.3884233E-04  -0.4410695E+01   0.3884233E-04  -0.4410695E+01   0.3000000E+00
   0.1492683E+02   0.5857143E+01   0.2708583E-04  -0.4567258E+01   0.2708583E-04  -0.4567258E+01   0.3000000E+00
   0.1492683E+02   0.6833333E+01   0.3248279E-04  -0.4488347E+01   0.3248279E-04  -0.4488347E+01   0.3000000E+00
   0.1492683E+02   0.7809524E+01   0.5841721E-04  -0.4233459E+01   0.5841721E-04  -0.4233459E+01   0.3000000E+00
   0.1492683E+02   0.8785714E+01   0.3599250E-04  -0.4443788E+01   0.3599250E-04  -0.4443788E+01   0.3000000E+00
   0.1492683E+02   0.9761905E+01   0.4878928E-04  -0.4311676E+01   0.4878928E-04  -0.4311676E+01   0.3000000E+00
   0.1492683E+02   0.1073810E+02   0.1484949E-07  -0.7828288E+01   0.1484949E-07  -0.7828288E+01   0.3000000E+00
   0.1492683E+02   0.1171429E+02   0.2104085E-07  -0.7676937E+01   0.2104085E-07  -0.7676937E+01   0.3000000E+00
   0.1492683E+02   0.1269048E+02   0.1306015E-07  -0.7884052E+01   0.1306015E-07  -0.7884052E+01   0.3000000E+00
   0.1492683E+02   0.1366667E+02   0.3825793E-08  -0.8417279E+01   0.3825793E-08  -0.8417279E+01   0.3000000E+00
   0.1492683E+02   0.1464286E+02   0.3145351E-04  -0.4502331E+01   0.3145351E-04  -0.4502331E+01   0.3000000E+00
   0.1492683E+02   0.1561905E+02   0.3377127E-04  -0.4471453E+01   0.3377127E-04  -0.4471453E+01   0.3000000E+00
   0.1492683E+02   0.1659524E+02   0.4837149E-04  -0.4315411E+01   0.4837149E-04  -0.4315411E+01   0.3000000E+00
   0.1492683E+02   0.1757143E+02   0.3355583E-04  -0.4474232E+01   0.3355583E-04  -0.4474232E+01   0.3000000E+00
   0.1492683E+02   0.1854762E+02   0.2097666E-04  -0.4678264E+01   0.2097666E-04  -0.4678264E+01   0.3000000E+00
   0.1492683E+02   0.1952381E+02   0.2473231E-04  -0.4606735E+01   0.2473231E-04  -0.4606735E+01   0.3000000E+00
   0.1492683E+02   0.2050000E+02   0.2473231E-04  -0.4606735E+01   0.2473231E-04  -0.4606735E+01   0.3000000E+00
   0.1741463E+02   0.0000000E+00   0.2331100E-03  -0.3632439E+01   0.2331100E-03  -0.3632439E+01   0.3000000E+00
   0.1741463E+02   0.9761905E+00   0.1549822E-03  -0.3809718E+01   0.1549822E-03  -0.3809718E+01   0.3000000E+00
   0.1741463E+02   0.1952381E+01   0.1758991E-03  -0.3754736E+01   0.1758991E-03  -0.3754736E+01   0.3000000E+00
   0.1741463E+02   0.2928571E+01   0.7903656E-04  -0.4102172E+01   0.7903656E-04  -0.4102172E+01   0.3000000E+00
   0.1741463E+02   0.3904762E+01   0.1023206E-03  -0.3990037E+01   0.1023206E-03  -0.3990037E+01   0.3000000E+00
   0.1741463E+02   0.4880952E+01   0.4594801E-04  -0.4337733E+01   0.4594801E-04  -0.4337733E+01   0.3000000E+00
   0.1741463E+02   0.5857143E+01   0.2779651E-04  -0.4556010E+01   0.2779651E-04  -0.4556010E+01   0.3000000E+00
   0.1741463E+02   0.6833333E+01   0.1345715E-04  -0.4871047E+01   0.1345715E-04  -0.4871047E+01   0.3000000E+00
   0.1741463E+02   0.7809524E+01   0.2363221E-04  -0.4626496E+01   0.2363221E-04  -0.4626496E+01   0.3000000E+00
   0.1741463E+02   0.8785714E+01   0.2140470E-04  -0.4669491E+01   0.2140470E-04  -0.4669491E+01   0.3000000E+00
   0.1741463E+02   0.9761905E+01   0.1919233E-04  -0.4716872E+01   0.1919233E-04  -0.4716872E+01   0.3000000E+00
   0.1741463E+02   0.1073810E+02   0.1685531E-07  -0.7773263E+01   0.1685531E-07  -0.7773263E+01   0.3000000E+00
   0.1741463E+02   0.1171429E+02   0.9252241E-08  -0.8033753E+01   0.9252241E-08  -0.8033753E+01   0.3000000E+00
   0.1741463E+02   0.1269048E+02   0.2237325E-07  -0.7650271E+01   0.2237325E-07  -0.7650271E+01   0.3000000E+00
   0.1741463E+02   0.1366667E+02   0.2389731E-07  -0.7621651E+01   0.2389731E-07  -0.7621651E+01   0.3000000E+00
   0.1741463E+02   0.1464286E+02   0.3076909E-04  -0.4511885E+01   0.3076909E-04  -0.4511885E+01   0.3000000E+00
   0.1741463E+02   0.1561905E+02   0.2773820E-04  -0.4556922E+01   0.2773820E-04  -0.4556922E+01   0.3000000E+00
   0.1741463E+02   0.1659524E+02   0.5692363E-04  -0.4244707E+01   0.5692363E-04  -0.4244707E+01   0.3000000E+00
   0.1741463E+02   0.1757143E+02   0.3483806E-04  -0.4457946E+01   0.3483806E-04  -0.4457946E+01   0.3000000E+00
   0.1741463E+02   0.1854762E+02   0.4616447E-04  -0.4335692E+01   0.4616447E-04  -0.4335692E+01   0.3000000E+00
   0.1741463E+02   0.1952381E+02   0.5012453E-04  -0.4299950E+01   0.5012453E-04  -0.4299950E+01   0.3000000E+00
   0.1741463E+02   0.2050000E+02   0.5012453E-04  -0.4299950E+01   0.5012453E-04  -0.4299950E+01   0.3000000E+00
   0.1990244E+02   0.0000000E+00   0.5282109E-04  -0.4277193E+01   0.5282109E-04  -0.4277193E+01   0.3000000E+00
   0.1990244E+02   0.9761905E+00   0.2836413E-03  -0.3547230E+01   0.2836413E-03  -0.3547230E+01   0.3000000E+00
   0.1990244E+02   0.1952381E+01   0.1873373E-03  -0.3727376E+01   0.1873373E-03  -0.3727376E+01   0.3000000E+00
   0.1990244E+02   0.2928571E+01   0.7146520E-04  -0.4145905E+01   0.7146520E-04  -0.4145905E+01   0.3000000E+00
   0.1990244E+02   0.3904762E+01   0.4913200E-04  -0.4308636E+01   0.4913200E-04  -0.4308636E+01   0.3000000E+00
   0.1990244E+02   0.4880952E+01   0.2566455E-04  -0.4590666E+01   0.2566455E-04  -0.4590666E+01   0.3000000E+00
   0.1990244E+02   0.5857143E+01   0.2461142E-04  -0.4608863E+01   0.2461142E-04  -0.4608863E+01   0.3000000E+00
   0.1990244E+02   0.6833333E+01   0.1553989E-04  -0.4808552E+01   0.1553989E-04  -0.4808552E+01   0.3000000E+00
   0.1990244E+02   0.7809524E+01   0.1680053E-04  -0.4774677E+01   0.1680053E-04  -0.4774677E+01   0.3000000E+00
   0.1990244E+02   0.8785714E+01   0.1336328E-04  -0.4874087E+01   0.1336328E-04  -0.4874087E+01   0.3000000E+00
   0.1990244E+02   0.9761905E+01   0.3184596E-04  -0.4496946E+01   0.3184596E-04  -0.4496946E+01   0.3000000E+00
   0.1990244E+02   0.1073810E+02   0.2793180E-07  -0.7553901E+01   0.2793180E-07  -0.7553901E+01   0.3000000E+00
   0.1990244E+02   0.1171429E+02   0.2229731E-07  -0.7651748E+01   0.2229731E-07  -0.7651748E+01   0.3000000E+00
   0.1990244E+02   0.1269048E+02   0.1676982E-06  -0.6775472E+01   0.1676982E-06  -0.6775472E+01   0.3000000E+00
   0.1990244E+02   0.1366667E+02   0.1280302E-06  -0.6892688E+01   0.1280302E-06  -0.6892688E+01   0.3000000E+00
   0.1990244E+02   0.1464286E+02   0.5042114E-04  -0.4297387E+01   0.5042114E-04  -0.4297387E+01   0.3000000E+00
   0.1990244E+02   0.1561905E+02   0.4872589E-04  -0.4312240E+01   0.4872589E-04  -0.4312240E+01   0.3000000E+00
   0.1990244E+02   0.1659524E+02   0.4764657E-04  -0.4321968E+01   0.4764657E-04  -0.4321968E+01   0.3000000E+00
   0.1990244E+02   0.1757143E+02   0.4273040E-04  -0.4369263E+01   0.4273040E-04  -0.4369263E+01   0.3000000E+00
   0.1990244E+02   0.1854762E+02   0.5945446E-04  -0.4225816E+01   0.5945446E-04  -0.4225816E+01   0.3000000E+00
   0.1990244E+02   0.1952381E+02   0.3351559E-04  -0.4474753E+01   0.3351559E-04  -0.4474753E+01   0.3000000E+00
   0.1990244E+02   0.2050000E+02   0.3351559E-04  -0.4474753E+01   0.3351559E-04  -0.4474753E+01   0.3000000E+00
   0.2239024E+02   0.0000000E+00   0.9163475E-04  -0.4037940E+01   0.9163475E-04  -0.4037940E+01   0.3000000E+00
   0.2239024E+02   0.9761905E+00   0.1382565E-03  -0.3859314E+01   0.1382565E-03  -0.3859314E+01   0.3000000E+00
   0.2239024E+02   0.1952381E+01   0.1653907E-03  -0.3781489E+01   0.1653907E-03  -0.3781489E+01   0.3000000E+00
   0.2239024E+02   0.2928571E+01   0.9838718E-04  -0.4007061E+01   0.9838718E-04  -0.4007061E+01   0.3000000E+00
   0.2239024E+02   0.3904762E+01   0.2167177E-04  -0.4664106E+01   0.2167177E-04  -0.4664106E+01   0.3000000E+00
   0.2239024E+02   0.4880952E+01   0.1997159E-04  -0.4699587E+01   0.1997159E-04  -0.4699587E+01   0.3000000E+00
   0.2239024E+02   0.5857143E+01   0.1969393E-04  -0.4705668E+01   0.1969393E-04  -0.4705668E+01   0.3000000E+00
   0.2239024E+02   0.6833333E+01   0.1057307E-04  -0.4975799E+01   0.1057307E-04  -0.4975799E+01   0.3000000E+00
   0.2239024E+02   0.7809524E+01   0.1071892E-04  -0.4969849E+01   0.1071892E-04  -0.4969849E+01   0.3000000E+00
   0.2239024E+02   0.8785714E+01   0.7608078E-05  -0.5118725E+01   0.7608078E-05  -0.5118725E+01   0.3000000E+00
   0.2239024E+02   0.9761905E+01   0.4242384E-04  -0.4372390E+01   0.4242384E-04  -0.4372390E+01   0.3000000E+00
   0.2239024E+02   0.1073810E+02   0.4913890E-08  -0.8308575E+01   0.4913890E-08  -0.8308575E+01   0.3000000E+00
   0.2239024E+02   0.1171429E+02   0.8495748E-08  -0.8070798E+01   0.8495748E-08  -0.8070798E+01   0.3000000E+00
   0.2239024E+02   0.1269048E+02   0.1753267E-07  -0.7756152E+01   0.1753267E-07  -0.7756152E+01   0.3000000E+00
   0.2239024E+02   0.1366667E+02   0.5263419E-07  -0.7278732E+01   0.5263419E-07  -0.7278732E+01   0.3000000E+00
   0.2239024E+02   0.1464286E+02   0.6402736E-04  -0.4193634E+01   0.6402736E-04  -0.4193634E+01   0.3000000E+00
   0.2239024E+02   0.1561905E+02   0.4716304E-04  -0.4326398E+01   0.4716304E-04  -0.4326398E+01   0.3000000E+00
   0.2239024E+02   0.1659524E+02   0.3104105E-04  -0.4508064E+01   0.3104105E-04  -0.4508064E+01   0.3000000E+00
   0.2239024E+02   0.1757143E+02   0.2714819E-04  -0.4566259E+01   0.2714819E-04  -0.4566259E+01   0.3000000E+00
   0.2239024E+02   0.1854762E+02   0.1848040E-04  -0.4733289E+01   0.1848040E-04  -0.4733289E+01   0.3000000E+00
   0.2239024E+02   0.1952381E+02   0.1705956E-04  -0.4768032E+01   0.1705956E-04  -0.4768032E+01   0.3000000E+00
   0.2239024E+02   0.2050000E+02   0.1705956E-04  -0.4768032E+01   0.1705956E-04  -0.4768032E+01   0.3000000E+00
   0.2487805E+02   0.0000000E+00   0.2920706E-04  -0.4534512E+01   0.2920706E-04  -0.4534512E+01   0.3000000E+00
   0.2487805E+02   0.9761905E+00   0.5557928E-04  -0.4255087E+01   0.5557928E-04  -0.4255087E+01   0.3000000E+00
   0.2487805E+02   0.1952381E+01   0.9292666E-04  -0.4031860E+01   0.9292666E-04  -0.4031860E+01   0.3000000E+00
   0.2487805E+02   0.2928571E+01   0.8520078E-04  -0.4069556E+01   0.8520078E-04  -0.4069556E+01   0.3000000E+00
   0.2487805E+02   0.3904762E+01   0.8199807E-05  -0.5086196E+01   0.8199807E-05  -0.5086196E+01   0.3000000E+00
   0.2487805E+02   0.4880952E+01   0.1287272E-04  -0.4890330E+01   0.1287272E-04  -0.4890330E+01   0.3000000E+00
   0.2487805E+02   0.5857143E+01   0.2362040E-04  -0.4626713E+01   0.2362040E-04  -0.4626713E+01   0.3000000E+00
   0.2487805E+02   0.6833333E+01   0.2078872E-04  -0.4682172E+01   0.2078872E-04  -0.4682172E+01   0.3000000E+00
   0.2487805E+02   0.7809524E+01   0.1853036E-04  -0.4732116E+01   0.1853036E-04  -0.4732116E+01   0.3000000E+00
   0.2487805E+02   0.8785714E+01   0.3527980E-04  -0.4452474E+01   0.3527980E-04  -0.4452474E+01   0.3000000E+00
   0.2487805E+02   0.9761905E+01   0.4211528E-04  -0.4375560E+01   0.4211528E-04  -0.4375560E+01   0.3000000E+00
   0.2487805E+02   0.1073810E+02   0.2893208E-08  -0.8538620E+01   0.2893208E-08  -0.8538620E+01   0.3000000E+00
   0.2487805E+02   0.1171429E+02   0.5140066E-08  -0.8289031E+01   0.5140066E-08  -0.8289031E+01   0.3000000E+00
   0.2487805E+02   0.1269048E+02   0.7263529E-08  -0.8138852E+01   0.7263529E-08  -0.8138852E+01   0.3000000E+00
   0.2487805E+02   0.1366667E+02   0.2179686E-07  -0.7661606E+01   0.2179686E-07  -0.7661606E+01   0.3000000E+00
   0.2487805E+02   0.1464286E+02   0.8135405E-04  -0.4089621E+01   0.8135405E-04  -0.4089621E+01   0.3000000E+00
   0.2487805E+02   0.1561905E+02   0.4195135E-04  -0.4377254E+01   0.4195135E-04  -0.4377254E+01   0.3000000E+00
   0.2487805E+02   0.1659524E+02   0.2227379E-04  -0.4652206E+01   0.2227379E-04  -0.4652206E+01   0.3000000E+00
   0.2487805E+02   0.1757143E+02   0.1663835E-04  -0.4778890E+01   0.1663835E-04  -0.4778890E+01   0.3000000E+00
   0.2487805E+02   0.1854762E+02   0.9220328E-05  -0.5035254E+01   0.9220328E-05  -0.5035254E+01   0.3000000E+00
   0.2487805E+02   0.1952381E+02   0.1585065E-04  -0.4799953E+01   0.1585065E-04  -0.4799953E+01   0.3000000E+00
   0.2487805E+02   0.2050000E+02   0.1585065E-04  -0.4799953E+01   0.1585065E-04  -0.4799953E+01   0.3000000E+00
   0.2736585E+02   0.0000000E+00   0.3625983E-04  -0.4440574E+01   0.3625983E-04  -0.4440574E+01   0.3000000E+00
   0.2736585E+02   0.9761905E+00   0.7595268E-04  -0.4119457E+01   0.7595268E-04  -0.4119457E+01   0.3000000E+00
   0.2736585E+02   0.1952381E+01   0.1687824E-03  -0.3772673E+01   0.1687824E-03  -0.3772673E+01   0.3000000E+00
   0.2736585E+02   0.2928571E+01   0.1081599E-03  -0.3965934E+01   0.1081599E-03  -0.3965934E+01   0.3000000E+00
   0.2736585E+02   0.3904762E+01   0.6851896E-04  -0.4164189E+01   0.6851896E-04  -0.4164189E+01   0.3000000E+00
   0.2736585E+02   0.4880952E+01   0.3233048E-04  -0.4490388E+01   0.3233048E-04  -0.4490388E+01   0.3000000E+00
   0.2736585E+02   0.5857143E+01   0.4386034E-04  -0.4357928E+01   0.4386034E-04  -0.4357928E+01   0.3000000E+00
   0.2736585E+02   0.6833333E+01   0.3353570E-04  -0.4474493E+01   0.3353570E-04  -0.4474493E+01   0.3000000E+00
   0.2736585E+02   0.7809524E+01   0.2692918E-04  -0.4569777E+01   0.2692918E-04  -0.4569777E+01   0.3000000E+00
   0.2736585E+02   0.8785714E+01   0.3400510E-04  -0.4468456E+01   0.3400510E-04  -0.4468456E+01   0.3000000E+00
   0.2736585E+02   0.9761905E+01   0.4534095E-04  -0.4343509E+01   0.4534095E-04  -0.4343509E+01   0.3000000E+00
   0.2736585E+02   0.1073810E+02   0.7194133E-08  -0.8143022E+01   0.7194133E-08  -0.8143022E+01   0.3000000E+00
   0.2736585E+02   0.1171429E+02   0.9248541E-08  -0.8033927E+01   0.9248541E-08  -0.8033927E+01   0.3000000E+00
   0.2736585E+02   0.1269048E+02   0.9675199E-08  -0.8014340E+01   0.9675199E-08  -0.8014340E+01   0.3000000E+00
   0.2736585E+02   0.1366667E+02   0.6978722E-08  -0.8156224E+01   0.6978722E-08  -0.8156224E+01   0.3000000E+00
   0.2736585E+02   0.1464286E+02   0.1186539E-03  -0.3925718E+01   0.1186539E-03  -0.3925718E+01   0.3000000E+00
   0.2736585E+02   0.1561905E+02   0.5311772E-04  -0.4274761E+01   0.5311772E-04  -0.4274761E+01   0.3000000E+00
   0.2736585E+02   0.1659524E+02   0.2456716E-04  -0.4609645E+01   0.2456716E-04  -0.4609645E+01   0.3000000E+00
   0.2736585E+02   0.1757143E+02   0.1504598E-04  -0.4822580E+01   0.1504598E-04  -0.4822580E+01   0.3000000E+00
   0.2736585E+02   0.1854762E+02   0.9500178E-05  -0.5022268E+01   0.9500178E-05  -0.5022268E+01   0.3000000E+00
   0.2736585E+02   0.1952381E+02   0.1545311E-04  -0.4810984E+01   0.1545311E-04  -0.4810984E+01   0.3000000E+00
   0.2736585E+02   0.2050000E+02   0.1545311E-04  -0.4810984E+01   0.1545311E-04  -0.4810984E+01   0.3000000E+00