title="2d K section "
variables="x","z","Kx","logKx","Kz","logKz","porosity"
zone i=    22, j=    42,T="Initial K at t=0"
   0.0000000E+00   0.0000000E+00   0.1797372E-04  -0.4745362E+01   0.1797372E-04  -0.4745362E+01   0.3000000E+00
   0.0000000E+00   0.9761905E+00   0.1887448E-04  -0.4724125E+01   0.1887448E-04  -0.4724125E+01   0.3000000E+00
   0.0000000E+00   0.1952381E+01   0.2451072E-04  -0.4610644E+01   0.2451072E-04  -0.4610644E+01   0.3000000E+00
   0.0000000E+00   0.2928571E+01   0.1591259E-04  -0.4798259E+01   0.1591259E-04  -0.4798259E+01   0.3000000E+00
   0.0000000E+00   0.3904762E+01   0.6081951E-04  -0.4215957E+01   0.6081951E-04  -0.4215957E+01   0.3000000E+00
   0.0000000E+00   0.4880952E+01   0.8046405E-04  -0.4094398E+01   0.8046405E-04  -0.4094398E+01   0.3000000E+00
   0.0000000E+00   0.5857143E+01   0.1803493E-04  -0.4743885E+01   0.1803493E-04  -0.4743885E+01   0.3000000E+00
   0.0000000E+00   0.6833333E+01   0.5765117E-04  -0.4239192E+01   0.5765117E-04  -0.4239192E+01   0.3000000E+00
   0.0000000E+00   0.7809524E+01   0.4536816E-04  -0.4343249E+01   0.4536816E-04  -0.4343249E+01   0.3000000E+00
   0.0000000E+00   0.8785714E+01   0.2432514E-04  -0.4613945E+01   0.2432514E-04  -0.4613945E+01   0.3000000E+00
   0.0000000E+00   0.9761905E+01   0.6821814E-04  -0.4166100E+01   0.6821814E-04  -0.4166100E+01   0.3000000E+00
   0.0000000E+00   0.1073810E+02   0.2707108E-07  -0.7567494E+01   0.2707108E-07  -0.7567494E+01   0.3000000E+00
   0.0000000E+00   0.1171429E+02   0.2422938E-07  -0.7615658E+01   0.2422938E-07  -0.7615658E+01   0.3000000E+00
   0.0000000E+00   0.1269048E+02   0.1081875E-06  -0.6965823E+01   0.1081875E-06  -0.6965823E+01   0.3000000E+00
   0.0000000E+00   0.1366667E+02   0.2682356E-06  -0.6571484E+01   0.2682356E-06  -0.6571484E+01   0.3000000E+00
   0.0000000E+00   0.1464286E+02   0.9320169E-07  -0.7030576E+01   0.9320169E-07  -0.7030576E+01   0.3000000E+00
   0.0000000E+00   0.1561905E+02   0.9627375E-05  -0.5016492E+01   0.9627375E-05  -0.5016492E+01   0.3000000E+00
   0.0000000E+00   0.1659524E+02   0.9539209E-05  -0.5020488E+01   0.9539209E-05  -0.5020488E+01   0.3000000E+00
   0.0000000E+00   0.1757143E+02   0.8944247E-05  -0.5048456E+01   0.8944247E-05  -0.5048456E+01   0.3000000E+00
   0.0000000E+00   0.1854762E+02   0.9246181E-05  -0.5034038E+01   0.9246181E-05  -0.5034038E+01   0.3000000E+00
   0.0000000E+00   0.1952381E+02   0.2930068E-04  -0.4533122E+01   0.2930068E-04  -0.4533122E+01   0.3000000E+00
   0.0000000E+00   0.2050000E+02   0.2930068E-04  -0.4533122E+01   0.2930068E-04  -0.4533122E+01   0.3000000E+00
   0.2487805E+01   0.0000000E+00   0.2460404E-04  -0.4608994E+01   0.2460404E-04  -0.4608994E+01   0.3000000E+00
   0.2487805E+01   0.9761905E+00   0.1188540E-04  -0.4924986E+01   0.1188540E-04  -0.4924986E+01   0.3000000E+00
   0.2487805E+01   0.1952381E+01   0.2861441E-04  -0.4543415E+01   0.2861441E-04  -0.4543415E+01   0.3000000E+00
   0.2487805E+01   0.2928571E+01   0.5425584E-04  -0.4265554E+01   0.5425584E-04  -0.4265554E+01   0.3000000E+00
   0.2487805E+01   0.3904762E+01   0.6856694E-04  -0.4163885E+01   0.6856694E-04  -0.4163885E+01   0.3000000E+00
   0.2487805E+01   0.4880952E+01   0.1086477E-03  -0.3963979E+01   0.1086477E-03  -0.3963979E+01   0.3000000E+00
   0.2487805E+01   0.5857143E+01   0.5418535E-04  -0.4266118E+01   0.5418535E-04  -0.4266118E+01   0.3000000E+00
   0.2487805E+01   0.6833333E+01   0.6214128E-04  -0.4206620E+01   0.6214128E-04  -0.4206620E+01   0.3000000E+00
   0.2487805E+01   0.7809524E+01   0.8053650E-04  -0.4094007E+01   0.8053650E-04  -0.4094007E+01   0.3000000E+00
   0.2487805E+01   0.8785714E+01   0.7913938E-04  -0.4101607E+01   0.7913938E-04  -0.4101607E+01   0.3000000E+00
   0.2487805E+01   0.9761905E+01   0.1322522E-03  -0.3878597E+01   0.1322522E-03  -0.3878597E+01   0.3000000E+00
   0.2487805E+01   0.1073810E+02   0.4368767E-07  -0.7359641E+01   0.4368767E-07  -0.7359641E+01   0.3000000E+00
   0.2487805E+01   0.1171429E+02   0.3731763E-07  -0.7428086E+01   0.3731763E-07  -0.7428086E+01   0.3000000E+00
   0.2487805E+01   0.1269048E+02   0.6882492E-07  -0.7162254E+01   0.6882492E-07  -0.7162254E+01   0.3000000E+00
   0.2487805E+01   0.1366667E+02   0.2784019E-06  -0.6555328E+01   0.2784019E-06  -0.6555328E+01   0.3000000E+00
   0.2487805E+01   0.1464286E+02   0.8055947E-05  -0.5093883E+01   0.8055947E-05  -0.5093883E+01   0.3000000E+00
   0.2487805E+01   0.1561905E+02   0.1530241E-04  -0.4815240E+01   0.1530241E-04  -0.4815240E+01   0.3000000E+00
   0.2487805E+01   0.1659524E+02   0.9944410E-05  -0.5002421E+01   0.9944410E-05  -0.5002421E+01   0.3000000E+00
   0.2487805E+01   0.1757143E+02   0.7783535E-05  -0.5108823E+01   0.7783535E-05  -0.5108823E+01   0.3000000E+00
   0.2487805E+01   0.1854762E+02   0.1192946E-04  -0.4923379E+01   0.1192946E-04  -0.4923379E+01   0.3000000E+00
   0.2487805E+01   0.1952381E+02   0.2100815E-04  -0.4677612E+01   0.2100815E-04  -0.4677612E+01   0.3000000E+00
   0.2487805E+01   0.2050000E+02   0.2100815E-04  -0.4677612E+01   0.2100815E-04  -0.4677612E+01   0.3000000E+00
   0.4975610E+01   0.0000000E+00   0.2244820E-04  -0.4648818E+01   0.2244820E-04  -0.4648818E+01   0.3000000E+00
   0.4975610E+01   0.9761905E+00   0.1799890E-04  -0.4744754E+01   0.1799890E-04  -0.4744754E+01   0.3000000E+00
   0.4975610E+01   0.1952381E+01   0.3295723E-04  -0.4482049E+01   0.3295723E-04  -0.4482049E+01   0.3000000E+00
   0.4975610E+01   0.2928571E+01   0.3016585E-04  -0.4520484E+01   0.3016585E-04  -0.4520484E+01   0.3000000E+00
   0.4975610E+01   0.3904762E+01   0.9544122E-04  -0.4020264E+01   0.9544122E-04  -0.4020264E+01   0.3000000E+00
   0.4975610E+01   0.4880952E+01   0.8676563E-04  -0.4061652E+01   0.8676563E-04  -0.4061652E+01   0.3000000E+00
   0.4975610E+01   0.5857143E+01   0.8095639E-04  -0.4091749E+01   0.8095639E-04  -0.4091749E+01   0.3000000E+00
   0.4975610E+01   0.6833333E+01   0.1293227E-03  -0.3888325E+01   0.1293227E-03  -0.3888325E+01   0.3000000E+00
   0.4975610E+01   0.7809524E+01   0.1812198E-03  -0.3741794E+01   0.1812198E-03  -0.3741794E+01   0.3000000E+00
   0.4975610E+01   0.8785714E+01   0.2161366E-03  -0.3665272E+01   0.2161366E-03  -0.3665272E+01   0.3000000E+00
   0.4975610E+01   0.9761905E+01   0.7678510E-04  -0.4114723E+01   0.7678510E-04  -0.4114723E+01   0.3000000E+00
   0.4975610E+01   0.1073810E+02   0.2463494E-07  -0.7608448E+01   0.2463494E-07  -0.7608448E+01   0.3000000E+00
   0.4975610E+01   0.1171429E+02   0.8063766E-07  -0.7093462E+01   0.8063766E-07  -0.7093462E+01   0.3000000E+00
   0.4975610E+01   0.1269048E+02   0.8967265E-07  -0.7047340E+01   0.8967265E-07  -0.7047340E+01   0.3000000E+00
   0.4975610E+01   0.1366667E+02   0.4667300E-07  -0.7330934E+01   0.4667300E-07  -0.7330934E+01   0.3000000E+00
   0.4975610E+01   0.1464286E+02   0.1686956E-04  -0.4772896E+01   0.1686956E-04  -0.4772896E+01   0.3000000E+00
   0.4975610E+01   0.1561905E+02   0.1747743E-04  -0.4757522E+01   0.1747743E-04  -0.4757522E+01   0.3000000E+00
   0.4975610E+01   0.1659524E+02   0.1421660E-04  -0.4847204E+01   0.1421660E-04  -0.4847204E+01   0.3000000E+00
   0.4975610E+01   0.1757143E+02   0.1584273E-04  -0.4800170E+01   0.1584273E-04  -0.4800170E+01   0.3000000E+00
   0.4975610E+01   0.1854762E+02   0.2037708E-04  -0.4690858E+01   0.2037708E-04  -0.4690858E+01   0.3000000E+00
   0.4975610E+01   0.1952381E+02   0.2247291E-04  -0.4648341E+01   0.2247291E-04  -0.4648341E+01   0.3000000E+00
   0.4975610E+01   0.2050000E+02   0.2247291E-04  -0.4648341E+01   0.2247291E-04  -0.4648341E+01   0.3000000E+00
   0.7463415E+01   0.0000000E+00   0.2468043E-04  -0.4607647E+01   0.2468043E-04  -0.4607647E+01   0.3000000E+00
   0.7463415E+01   0.9761905E+00   0.4899462E-04  -0.4309852E+01   0.4899462E-04  -0.4309852E+01   0.3000000E+00
   0.7463415E+01   0.1952381E+01   0.5224324E-04  -0.4281970E+01   0.5224324E-04  -0.4281970E+01   0.3000000E+00
   0.7463415E+01   0.2928571E+01   0.5674177E-04  -0.4246097E+01   0.5674177E-04  -0.4246097E+01   0.3000000E+00
   0.7463415E+01   0.3904762E+01   0.6640090E-04  -0.4177826E+01   0.6640090E-04  -0.4177826E+01   0.3000000E+00
   0.7463415E+01   0.4880952E+01   0.5010950E-04  -0.4300080E+01   0.5010950E-04  -0.4300080E+01   0.3000000E+00
   0.7463415E+01   0.5857143E+01   0.4976991E-04  -0.4303033E+01   0.4976991E-04  -0.4303033E+01   0.3000000E+00
   0.7463415E+01   0.6833333E+01   0.1566338E-03  -0.3805115E+01   0.1566338E-03  -0.3805115E+01   0.3000000E+00
   0.7463415E+01   0.7809524E+01   0.2327141E-03  -0.3633177E+01   0.2327141E-03  -0.3633177E+01   0.3000000E+00
   0.7463415E+01   0.8785714E+01   0.2016454E-03  -0.3695412E+01   0.2016454E-03  -0.3695412E+01   0.3000000E+00
   0.7463415E+01   0.9761905E+01   0.1192844E-03  -0.3923416E+01   0.1192844E-03  -0.3923416E+01   0.3000000E+00
   0.7463415E+01   0.1073810E+02   0.3392546E-07  -0.7469474E+01   0.3392546E-07  -0.7469474E+01   0.3000000E+00
   0.7463415E+01   0.1171429E+02   0.6550758E-07  -0.7183708E+01   0.6550758E-07  -0.7183708E+01   0.3000000E+00
   0.7463415E+01   0.1269048E+02   0.8417230E-07  -0.7074831E+01   0.8417230E-07  -0.7074831E+01   0.3000000E+00
   0.7463415E+01   0.1366667E+02   0.2506483E-07  -0.7600935E+01   0.2506483E-07  -0.7600935E+01   0.3000000E+00
   0.7463415E+01   0.1464286E+02   0.2044852E-04  -0.4689338E+01   0.2044852E-04  -0.4689338E+01   0.3000000E+00
   0.7463415E+01   0.1561905E+02   0.1887448E-04  -0.4724125E+01   0.1887448E-04  -0.4724125E+01   0.3000000E+00
   0.7463415E+01   0.1659524E+02   0.1841583E-04  -0.4734809E+01   0.1841583E-04  -0.4734809E+01   0.3000000E+00
   0.7463415E+01   0.1757143E+02   0.1579843E-04  -0.4801386E+01   0.1579843E-04  -0.4801386E+01   0.3000000E+00
   0.7463415E+01   0.1854762E+02   0.1676194E-04  -0.4775676E+01   0.1676194E-04  -0.4775676E+01   0.3000000E+00
   0.7463415E+01   0.1952381E+02   0.1607412E-04  -0.4793873E+01   0.1607412E-04  -0.4793873E+01   0.3000000E+00
   0.7463415E+01   0.2050000E+02   0.1607412E-04  -0.4793873E+01   0.1607412E-04  -0.4793873E+01   0.3000000E+00
   0.9951220E+01   0.0000000E+00   0.4331550E-04  -0.4363357E+01   0.4331550E-04  -0.4363357E+01   0.3000000E+00
   0.9951220E+01   0.9761905E+00   0.6000396E-04  -0.4221820E+01   0.6000396E-04  -0.4221820E+01   0.3000000E+00
   0.9951220E+01   0.1952381E+01   0.1448807E-03  -0.3838990E+01   0.1448807E-03  -0.3838990E+01   0.3000000E+00
   0.9951220E+01   0.2928571E+01   0.1264833E-03  -0.3897967E+01   0.1264833E-03  -0.3897967E+01   0.3000000E+00
   0.9951220E+01   0.3904762E+01   0.1322786E-03  -0.3878510E+01   0.1322786E-03  -0.3878510E+01   0.3000000E+00
   0.9951220E+01   0.4880952E+01   0.3455701E-04  -0.4461464E+01   0.3455701E-04  -0.4461464E+01   0.3000000E+00
   0.9951220E+01   0.5857143E+01   0.5766847E-04  -0.4239062E+01   0.5766847E-04  -0.4239062E+01   0.3000000E+00
   0.9951220E+01   0.6833333E+01   0.6724284E-04  -0.4172354E+01   0.6724284E-04  -0.4172354E+01   0.3000000E+00
   0.9951220E+01   0.7809524E+01   0.9663206E-04  -0.4014879E+01   0.9663206E-04  -0.4014879E+01   0.3000000E+00
   0.9951220E+01   0.8785714E+01   0.1196069E-03  -0.3922244E+01   0.1196069E-03  -0.3922244E+01   0.3000000E+00
   0.9951220E+01   0.9761905E+01   0.9677712E-04  -0.4014227E+01   0.9677712E-04  -0.4014227E+01   0.3000000E+00
   0.9951220E+01   0.1073810E+02   0.1807204E-07  -0.7742993E+01   0.1807204E-07  -0.7742993E+01   0.3000000E+00
   0.9951220E+01   0.1171429E+02   0.3963711E-07  -0.7401898E+01   0.3963711E-07  -0.7401898E+01   0.3000000E+00
   0.9951220E+01   0.1269048E+02   0.4986657E-08  -0.8302190E+01   0.4986657E-08  -0.8302190E+01   0.3000000E+00
   0.9951220E+01   0.1366667E+02   0.6963386E-08  -0.8157180E+01   0.6963386E-08  -0.8157180E+01   0.3000000E+00
   0.9951220E+01   0.1464286E+02   0.2360151E-04  -0.4627060E+01   0.2360151E-04  -0.4627060E+01   0.3000000E+00
   0.9951220E+01   0.1561905E+02   0.9416943E-05  -0.5026090E+01   0.9416943E-05  -0.5026090E+01   0.3000000E+00
   0.9951220E+01   0.1659524E+02   0.1490819E-04  -0.4826575E+01   0.1490819E-04  -0.4826575E+01   0.3000000E+00
   0.9951220E+01   0.1757143E+02   0.1095406E-04  -0.4960425E+01   0.1095406E-04  -0.4960425E+01   0.3000000E+00
   0.9951220E+01   0.1854762E+02   0.1806562E-04  -0.4743147E+01   0.1806562E-04  -0.4743147E+01   0.3000000E+00
   0.9951220E+01   0.1952381E+02   0.2881254E-04  -0.4540419E+01   0.2881254E-04  -0.4540419E+01   0.3000000E+00
   0.9951220E+01   0.2050000E+02   0.2881254E-04  -0.4540419E+01   0.2881254E-04  -0.4540419E+01   0.3000000E+00
   0.1243902E+02   0.0000000E+00   0.6167080E-04  -0.4209920E+01   0.6167080E-04  -0.4209920E+01   0.3000000E+00
   0.1243902E+02   0.9761905E+00   0.1328354E-03  -0.3876686E+01   0.1328354E-03  -0.3876686E+01   0.3000000E+00
   0.1243902E+02   0.1952381E+01   0.1120237E-03  -0.3950690E+01   0.1120237E-03  -0.3950690E+01   0.3000000E+00
   0.1243902E+02   0.2928571E+01   0.3638332E-04  -0.4439098E+01   0.3638332E-04  -0.4439098E+01   0.3000000E+00
   0.1243902E+02   0.3904762E+01   0.6836155E-04  -0.4165188E+01   0.6836155E-04  -0.4165188E+01   0.3000000E+00
   0.1243902E+02   0.4880952E+01   0.1517289E-04  -0.4818932E+01   0.1517289E-04  -0.4818932E+01   0.3000000E+00
   0.1243902E+02   0.5857143E+01   0.5101453E-04  -0.4292306E+01   0.5101453E-04  -0.4292306E+01   0.3000000E+00
   0.1243902E+02   0.6833333E+01   0.3542829E-04  -0.4450650E+01   0.3542829E-04  -0.4450650E+01   0.3000000E+00
   0.1243902E+02   0.7809524E+01   0.7117279E-04  -0.4147686E+01   0.7117279E-04  -0.4147686E+01   0.3000000E+00
   0.1243902E+02   0.8785714E+01   0.8389874E-04  -0.4076245E+01   0.8389874E-04  -0.4076245E+01   0.3000000E+00
   0.1243902E+02   0.9761905E+01   0.4356310E-04  -0.4360881E+01   0.4356310E-04  -0.4360881E+01   0.3000000E+00
   0.1243902E+02   0.1073810E+02   0.3395261E-07  -0.7469127E+01   0.3395261E-07  -0.7469127E+01   0.3000000E+00
   0.1243902E+02   0.1171429E+02   0.2526868E-07  -0.7597417E+01   0.2526868E-07  -0.7597417E+01   0.3000000E+00
   0.1243902E+02   0.1269048E+02   0.8164258E-08  -0.8088083E+01   0.8164258E-08  -0.8088083E+01   0.3000000E+00
   0.1243902E+02   0.1366667E+02   0.7504222E-08  -0.8124694E+01   0.7504222E-08  -0.8124694E+01   0.3000000E+00
   0.1243902E+02   0.1464286E+02   0.3808081E-04  -0.4419294E+01   0.3808081E-04  -0.4419294E+01   0.3000000E+00
   0.1243902E+02   0.1561905E+02   0.2099975E-04  -0.4677786E+01   0.2099975E-04  -0.4677786E+01   0.3000000E+00
   0.1243902E+02   0.1659524E+02   0.2732250E-04  -0.4563480E+01   0.2732250E-04  -0.4563480E+01   0.3000000E+00
   0.1243902E+02   0.1757143E+02   0.1204814E-04  -0.4919080E+01   0.1204814E-04  -0.4919080E+01   0.3000000E+00
   0.1243902E+02   0.1854762E+02   0.1001627E-04  -0.4999294E+01   0.1001627E-04  -0.4999294E+01   0.3000000E+00
   0.1243902E+02   0.1952381E+02   0.3149443E-04  -0.4501766E+01   0.3149443E-04  -0.4501766E+01   0.3000000E+00
   0.1243902E+02   0.2050000E+02   0.3149443E-04  -0.4501766E+01   0.3149443E-04  -0.4501766E+01   0.3000000E+00
   0.1492683E+02   0.0000000E+00   0.9463341E-04  -0.4023956E+01   0.9463341E-04  -0.4023956E+01   0.3000000E+00
   0.1492683E+02   0.9761905E+00   0.1361573E-03  -0.3865959E+01   0.1361573E-03  -0.3865959E+01   0.3000000E+00
   0.1492683E+02   0.1952381E+01   0.1078359E-03  -0.3967237E+01   0.1078359E-03  -0.3967237E+01   0.3000000E+00
   0.1492683E+02   0.2928571E+01   0.4645623E-04  -0.4332956E+01   0.4645623E-04  -0.4332956E+01   0.3000000E+00
   0.1492683E+02   0.3904762E+01   0.3388968E-04  -0.4469933E+01   0.3388968E-04  -0.4469933E+01   0.3000000E+00
   0.1492683E+02   0.4880952E+01   0.3880738E-04  -0.4411086E+01   0.3880738E-04  -0.4411086E+01   0.3000000E+00
   0.1492683E+02   0.5857143E+01   0.2706958E-04  -0.4567518E+01   0.2706958E-04  -0.4567518E+01   0.3000000E+00
   0.1492683E+02   0.6833333E+01   0.3246980E-04  -0.4488520E+01   0.3246980E-04  -0.4488520E+01   0.3000000E+00
   0.1492683E+02   0.7809524E+01   0.5842305E-04  -0.4233416E+01   0.5842305E-04  -0.4233416E+01   0.3000000E+00
   0.1492683E+02   0.8785714E+01   0.3604292E-04  -0.4443180E+01   0.3604292E-04  -0.4443180E+01   0.3000000E+00
   0.1492683E+02   0.9761905E+01   0.4893097E-04  -0.4310416E+01   0.4893097E-04  -0.4310416E+01   0.3000000E+00
   0.1492683E+02   0.1073810E+02   0.1484356E-07  -0.7828462E+01   0.1484356E-07  -0.7828462E+01   0.3000000E+00
   0.1492683E+02   0.1171429E+02   0.2099461E-07  -0.7677892E+01   0.2099461E-07  -0.7677892E+01   0.3000000E+00
   0.1492683E+02   0.1269048E+02   0.1301973E-07  -0.7885398E+01   0.1301973E-07  -0.7885398E+01   0.3000000E+00
   0.1492683E+02   0.1366667E+02   0.3820441E-08  -0.8417887E+01   0.3820441E-08  -0.8417887E+01   0.3000000E+00
   0.1492683E+02   0.1464286E+02   0.3147239E-04  -0.4502070E+01   0.3147239E-04  -0.4502070E+01   0.3000000E+00
   0.1492683E+02   0.1561905E+02   0.3379492E-04  -0.4471149E+01   0.3379492E-04  -0.4471149E+01   0.3000000E+00
   0.1492683E+02   0.1659524E+02   0.4836665E-04  -0.4315454E+01   0.4836665E-04  -0.4315454E+01   0.3000000E+00
   0.1492683E+02   0.1757143E+02   0.3356925E-04  -0.4474058E+01   0.3356925E-04  -0.4474058E+01   0.3000000E+00
   0.1492683E+02   0.1854762E+02   0.2101446E-04  -0.4677482E+01   0.2101446E-04  -0.4677482E+01   0.3000000E+00
   0.1492683E+02   0.1952381E+02   0.2473479E-04  -0.4606692E+01   0.2473479E-04  -0.4606692E+01   0.3000000E+00
   0.1492683E+02   0.2050000E+02   0.2473479E-04  -0.4606692E+01   0.2473479E-04  -0.4606692E+01   0.3000000E+00
   0.1741463E+02   0.0000000E+00   0.2331100E-03  -0.3632439E+01   0.2331100E-03  -0.3632439E+01   0.3000000E+00
   0.1741463E+02   0.9761905E+00   0.1549822E-03  -0.3809718E+01   0.1549822E-03  -0.3809718E+01   0.3000000E+00
   0.1741463E+02   0.1952381E+01   0.1758991E-03  -0.3754736E+01   0.1758991E-03  -0.3754736E+01   0.3000000E+00
   0.1741463E+02   0.2928571E+01   0.7903656E-04  -0.4102172E+01   0.7903656E-04  -0.4102172E+01   0.3000000E+00
   0.1741463E+02   0.3904762E+01   0.1023206E-03  -0.3990037E+01   0.1023206E-03  -0.3990037E+01   0.3000000E+00
   0.1741463E+02   0.4880952E+01   0.4590209E-04  -0.4338168E+01   0.4590209E-04  -0.4338168E+01   0.3000000E+00
   0.1741463E+02   0.5857143E+01   0.2776873E-04  -0.4556444E+01   0.2776873E-04  -0.4556444E+01   0.3000000E+00
   0.1741463E+02   0.6833333E+01   0.1345580E-04  -0.4871090E+01   0.1345580E-04  -0.4871090E+01   0.3000000E+00
   0.1741463E+02   0.7809524E+01   0.2364166E-04  -0.4626322E+01   0.2364166E-04  -0.4626322E+01   0.3000000E+00
   0.1741463E+02   0.8785714E+01   0.2142612E-04  -0.4669057E+01   0.2142612E-04  -0.4669057E+01   0.3000000E+00
   0.1741463E+02   0.9761905E+01   0.1926540E-04  -0.4715222E+01   0.1926540E-04  -0.4715222E+01   0.3000000E+00
   0.1741463E+02   0.1073810E+02   0.1683846E-07  -0.7773698E+01   0.1683846E-07  -0.7773698E+01   0.3000000E+00
   0.1741463E+02   0.1171429E+02   0.9226371E-08  -0.8034969E+01   0.9226371E-08  -0.8034969E+01   0.3000000E+00
   0.1741463E+02   0.1269048E+02   0.2231069E-07  -0.7651487E+01   0.2231069E-07  -0.7651487E+01   0.3000000E+00
   0.1741463E+02   0.1366667E+02   0.2385672E-07  -0.7622389E+01   0.2385672E-07  -0.7622389E+01   0.3000000E+00
   0.1741463E+02   0.1464286E+02   0.3075063E-04  -0.4512146E+01   0.3075063E-04  -0.4512146E+01   0.3000000E+00
   0.1741463E+02   0.1561905E+02   0.2770771E-04  -0.4557399E+01   0.2770771E-04  -0.4557399E+01   0.3000000E+00
   0.1741463E+02   0.1659524E+02   0.5690087E-04  -0.4244881E+01   0.5690087E-04  -0.4244881E+01   0.3000000E+00
   0.1741463E+02   0.1757143E+02   0.3482065E-04  -0.4458163E+01   0.3482065E-04  -0.4458163E+01   0.3000000E+00
   0.1741463E+02   0.1854762E+02   0.4621991E-04  -0.4335171E+01   0.4621991E-04  -0.4335171E+01   0.3000000E+00
   0.1741463E+02   0.1952381E+02   0.5014960E-04  -0.4299733E+01   0.5014960E-04  -0.4299733E+01   0.3000000E+00
   0.1741463E+02   0.2050000E+02   0.5014960E-04  -0.4299733E+01   0.5014960E-04  -0.4299733E+01   0.3000000E+00
   0.1990244E+02   0.0000000E+00   0.5282109E-04  -0.4277193E+01   0.5282109E-04  -0.4277193E+01   0.3000000E+00
   0.1990244E+02   0.9761905E+00   0.2836413E-03  -0.3547230E+01   0.2836413E-03  -0.3547230E+01   0.3000000E+00
   0.1990244E+02   0.1952381E+01   0.1873373E-03  -0.3727376E+01   0.1873373E-03  -0.3727376E+01   0.3000000E+00
   0.1990244E+02   0.2928571E+01   0.7146520E-04  -0.4145905E+01   0.7146520E-04  -0.4145905E+01   0.3000000E+00
   0.1990244E+02   0.3904762E+01   0.4913200E-04  -0.4308636E+01   0.4913200E-04  -0.4308636E+01   0.3000000E+00
   0.1990244E+02   0.4880952E+01   0.2565172E-04  -0.4590884E+01   0.2565172E-04  -0.4590884E+01   0.3000000E+00
   0.1990244E+02   0.5857143E+01   0.2457699E-04  -0.4609471E+01   0.2457699E-04  -0.4609471E+01   0.3000000E+00
   0.1990244E+02   0.6833333E+01   0.1550729E-04  -0.4809464E+01   0.1550729E-04  -0.4809464E+01   0.3000000E+00
   0.1990244E+02   0.7809524E+01   0.1680053E-04  -0.4774677E+01   0.1680053E-04  -0.4774677E+01   0.3000000E+00
   0.1990244E+02   0.8785714E+01   0.1337932E-04  -0.4873566E+01   0.1337932E-04  -0.4873566E+01   0.3000000E+00
   0.1990244E+02   0.9761905E+01   0.3187782E-04  -0.4496511E+01   0.3187782E-04  -0.4496511E+01   0.3000000E+00
   0.1990244E+02   0.1073810E+02   0.2799052E-07  -0.7552989E+01   0.2799052E-07  -0.7552989E+01   0.3000000E+00
   0.1990244E+02   0.1171429E+02   0.2223718E-07  -0.7652920E+01   0.2223718E-07  -0.7652920E+01   0.3000000E+00
   0.1990244E+02   0.1269048E+02   0.1675641E-06  -0.6775819E+01   0.1675641E-06  -0.6775819E+01   0.3000000E+00
   0.1990244E+02   0.1366667E+02   0.1279150E-06  -0.6893079E+01   0.1279150E-06  -0.6893079E+01   0.3000000E+00
   0.1990244E+02   0.1464286E+02   0.5038586E-04  -0.4297691E+01   0.5038586E-04  -0.4297691E+01   0.3000000E+00
   0.1990244E+02   0.1561905E+02   0.4865286E-04  -0.4312892E+01   0.4865286E-04  -0.4312892E+01   0.3000000E+00
   0.1990244E+02   0.1659524E+02   0.4764657E-04  -0.4321968E+01   0.4764657E-04  -0.4321968E+01   0.3000000E+00
   0.1990244E+02   0.1757143E+02   0.4273040E-04  -0.4369263E+01   0.4273040E-04  -0.4369263E+01   0.3000000E+00
   0.1990244E+02   0.1854762E+02   0.5949609E-04  -0.4225512E+01   0.5949609E-04  -0.4225512E+01   0.3000000E+00
   0.1990244E+02   0.1952381E+02   0.3354912E-04  -0.4474319E+01   0.3354912E-04  -0.4474319E+01   0.3000000E+00
   0.1990244E+02   0.2050000E+02   0.3354912E-04  -0.4474319E+01   0.3354912E-04  -0.4474319E+01   0.3000000E+00
   0.2239024E+02   0.0000000E+00   0.9163475E-04  -0.4037940E+01   0.9163475E-04  -0.4037940E+01   0.3000000E+00
   0.2239024E+02   0.9761905E+00   0.1382565E-03  -0.3859314E+01   0.1382565E-03  -0.3859314E+01   0.3000000E+00
   0.2239024E+02   0.1952381E+01   0.1653907E-03  -0.3781489E+01   0.1653907E-03  -0.3781489E+01   0.3000000E+00
   0.2239024E+02   0.2928571E+01   0.9838718E-04  -0.4007061E+01   0.9838718E-04  -0.4007061E+01   0.3000000E+00
   0.2239024E+02   0.3904762E+01   0.2167177E-04  -0.4664106E+01   0.2167177E-04  -0.4664106E+01   0.3000000E+00
   0.2239024E+02   0.4880952E+01   0.1995961E-04  -0.4699848E+01   0.1995961E-04  -0.4699848E+01   0.3000000E+00
   0.2239024E+02   0.5857143E+01   0.1967031E-04  -0.4706189E+01   0.1967031E-04  -0.4706189E+01   0.3000000E+00
   0.2239024E+02   0.6833333E+01   0.1055511E-04  -0.4976537E+01   0.1055511E-04  -0.4976537E+01   0.3000000E+00
   0.2239024E+02   0.7809524E+01   0.1070500E-04  -0.4970413E+01   0.1070500E-04  -0.4970413E+01   0.3000000E+00
   0.2239024E+02   0.8785714E+01   0.7599714E-05  -0.5119203E+01   0.7599714E-05  -0.5119203E+01   0.3000000E+00
   0.2239024E+02   0.9761905E+01   0.4236449E-04  -0.4372998E+01   0.4236449E-04  -0.4372998E+01   0.3000000E+00
   0.2239024E+02   0.1073810E+02   0.4940002E-08  -0.8306273E+01   0.4940002E-08  -0.8306273E+01   0.3000000E+00
   0.2239024E+02   0.1171429E+02   0.8510203E-08  -0.8070060E+01   0.8510203E-08  -0.8070060E+01   0.3000000E+00
   0.2239024E+02   0.1269048E+02   0.1753091E-07  -0.7756195E+01   0.1753091E-07  -0.7756195E+01   0.3000000E+00
   0.2239024E+02   0.1366667E+02   0.5265524E-07  -0.7278558E+01   0.5265524E-07  -0.7278558E+01   0.3000000E+00
   0.2239024E+02   0.1464286E+02   0.6394418E-04  -0.4194199E+01   0.6394418E-04  -0.4194199E+01   0.3000000E+00
   0.2239024E+02   0.1561905E+02   0.4712533E-04  -0.4326746E+01   0.4712533E-04  -0.4326746E+01   0.3000000E+00
   0.2239024E+02   0.1659524E+02   0.3105347E-04  -0.4507890E+01   0.3105347E-04  -0.4507890E+01   0.3000000E+00
   0.2239024E+02   0.1757143E+02   0.2716177E-04  -0.4566042E+01   0.2716177E-04  -0.4566042E+01   0.3000000E+00
   0.2239024E+02   0.1854762E+02   0.1849334E-04  -0.4732985E+01   0.1849334E-04  -0.4732985E+01   0.3000000E+00
   0.2239024E+02   0.1952381E+02   0.1707662E-04  -0.4767598E+01   0.1707662E-04  -0.4767598E+01   0.3000000E+00
   0.2239024E+02   0.2050000E+02   0.1707662E-04  -0.4767598E+01   0.1707662E-04  -0.4767598E+01   0.3000000E+00
   0.2487805E+02   0.0000000E+00   0.2920706E-04  -0.4534512E+01   0.2920706E-04  -0.4534512E+01   0.3000000E+00
   0.2487805E+02   0.9761905E+00   0.5557928E-04  -0.4255087E+01   0.5557928E-04  -0.4255087E+01   0.3000000E+00
   0.2487805E+02   0.1952381E+01   0.9292666E-04  -0.4031860E+01   0.9292666E-04  -0.4031860E+01   0.3000000E+00
   0.2487805E+02   0.2928571E+01   0.8520078E-04  -0.4069556E+01   0.8520078E-04  -0.4069556E+01   0.3000000E+00
   0.2487805E+02   0.3904762E+01   0.8199807E-05  -0.5086196E+01   0.8199807E-05  -0.5086196E+01   0.3000000E+00
   0.2487805E+02   0.4880952E+01   0.1287787E-04  -0.4890156E+01   0.1287787E-04  -0.4890156E+01   0.3000000E+00
   0.2487805E+02   0.5857143E+01   0.2359207E-04  -0.4627234E+01   0.2359207E-04  -0.4627234E+01   0.3000000E+00
   0.2487805E+02   0.6833333E+01   0.2076379E-04  -0.4682693E+01   0.2076379E-04  -0.4682693E+01   0.3000000E+00
   0.2487805E+02   0.7809524E+01   0.1851925E-04  -0.4732377E+01   0.1851925E-04  -0.4732377E+01   0.3000000E+00
   0.2487805E+02   0.8785714E+01   0.3520579E-04  -0.4453386E+01   0.3520579E-04  -0.4453386E+01   0.3000000E+00
   0.2487805E+02   0.9761905E+01   0.4200592E-04  -0.4376690E+01   0.4200592E-04  -0.4376690E+01   0.3000000E+00
   0.2487805E+02   0.1073810E+02   0.2908873E-08  -0.8536275E+01   0.2908873E-08  -0.8536275E+01   0.3000000E+00
   0.2487805E+02   0.1171429E+02   0.5162732E-08  -0.8287120E+01   0.5162732E-08  -0.8287120E+01   0.3000000E+00
   0.2487805E+02   0.1269048E+02   0.7286081E-08  -0.8137506E+01   0.7286081E-08  -0.8137506E+01   0.3000000E+00
   0.2487805E+02   0.1366667E+02   0.2189298E-07  -0.7659695E+01   0.2189298E-07  -0.7659695E+01   0.3000000E+00
   0.2487805E+02   0.1464286E+02   0.8131338E-04  -0.4089838E+01   0.8131338E-04  -0.4089838E+01   0.3000000E+00
   0.2487805E+02   0.1561905E+02   0.4191361E-04  -0.4377645E+01   0.4191361E-04  -0.4377645E+01   0.3000000E+00
   0.2487805E+02   0.1659524E+02   0.2228270E-04  -0.4652032E+01   0.2228270E-04  -0.4652032E+01   0.3000000E+00
   0.2487805E+02   0.1757143E+02   0.1666666E-04  -0.4778151E+01   0.1666666E-04  -0.4778151E+01   0.3000000E+00
   0.2487805E+02   0.1854762E+02   0.9233245E-05  -0.5034646E+01   0.9233245E-05  -0.5034646E+01   0.3000000E+00
   0.2487805E+02   0.1952381E+02   0.1587603E-04  -0.4799258E+01   0.1587603E-04  -0.4799258E+01   0.3000000E+00
   0.2487805E+02   0.2050000E+02   0.1587603E-04  -0.4799258E+01   0.1587603E-04  -0.4799258E+01   0.3000000E+00
   0.2736585E+02   0.0000000E+00   0.3625983E-04  -0.4440574E+01   0.3625983E-04  -0.4440574E+01   0.3000000E+00
   0.2736585E+02   0.9761905E+00   0.7595268E-04  -0.4119457E+01   0.7595268E-04  -0.4119457E+01   0.3000000E+00
   0.2736585E+02   0.1952381E+01   0.1687824E-03  -0.3772673E+01   0.1687824E-03  -0.3772673E+01   0.3000000E+00
   0.2736585E+02   0.2928571E+01   0.1081599E-03  -0.3965934E+01   0.1081599E-03  -0.3965934E+01   0.3000000E+00
   0.2736585E+02   0.3904762E+01   0.6851896E-04  -0.4164189E+01   0.6851896E-04  -0.4164189E+01   0.3000000E+00
   0.2736585E+02   0.4880952E+01   0.3235636E-04  -0.4490040E+01   0.3235636E-04  -0.4490040E+01   0.3000000E+00
   0.2736585E+02   0.5857143E+01   0.4383842E-04  -0.4358145E+01   0.4383842E-04  -0.4358145E+01   0.3000000E+00
   0.2736585E+02   0.6833333E+01   0.3353905E-04  -0.4474449E+01   0.3353905E-04  -0.4474449E+01   0.3000000E+00
   0.2736585E+02   0.7809524E+01   0.2692111E-04  -0.4569907E+01   0.2692111E-04  -0.4569907E+01   0.3000000E+00
   0.2736585E+02   0.8785714E+01   0.3395753E-04  -0.4469064E+01   0.3395753E-04  -0.4469064E+01   0.3000000E+00
   0.2736585E+02   0.9761905E+01   0.4526846E-04  -0.4344204E+01   0.4526846E-04  -0.4344204E+01   0.3000000E+00
   0.2736585E+02   0.1073810E+02   0.7230917E-08  -0.8140807E+01   0.7230917E-08  -0.8140807E+01   0.3000000E+00
   0.2736585E+02   0.1171429E+02   0.9270764E-08  -0.8032884E+01   0.9270764E-08  -0.8032884E+01   0.3000000E+00
   0.2736585E+02   0.1269048E+02   0.9713978E-08  -0.8012603E+01   0.9713978E-08  -0.8012603E+01   0.3000000E+00
   0.2736585E+02   0.1366667E+02   0.7003891E-08  -0.8154661E+01   0.7003891E-08  -0.8154661E+01   0.3000000E+00
   0.2736585E+02   0.1464286E+02   0.1184523E-03  -0.3926456E+01   0.1184523E-03  -0.3926456E+01   0.3000000E+00
   0.2736585E+02   0.1561905E+02   0.5306463E-04  -0.4275195E+01   0.5306463E-04  -0.4275195E+01   0.3000000E+00
   0.2736585E+02   0.1659524E+02   0.2453524E-04  -0.4610210E+01   0.2453524E-04  -0.4610210E+01   0.3000000E+00
   0.2736585E+02   0.1757143E+02   0.1505200E-04  -0.4822406E+01   0.1505200E-04  -0.4822406E+01   0.3000000E+00
   0.2736585E+02   0.1854762E+02   0.9515391E-05  -0.5021573E+01   0.9515391E-05  -0.5021573E+01   0.3000000E+00
   0.2736585E+02   0.1952381E+02   0.1548095E-04  -0.4810202E+01   0.1548095E-04  -0.4810202E+01   0.3000000E+00
   0.2736585E+02   0.2050000E+02   0.1548095E-04  -0.4810202E+01   0.1548095E-04  -0.4810202E+01   0.3000000E+00