title="2d vectors xz, t=    0.150E+03"
variables="x","z","vx","vz"
zone i=    21, j=    41, T="   0.150E+03"
  0.124390E+01  0.488056E+00  0.145516E-06 -0.236911E-08
  0.124390E+01  0.146417E+01  0.153614E-06  0.453952E-08
  0.124390E+01  0.244028E+01  0.208718E-06  0.176406E-07
  0.124390E+01  0.341639E+01  0.140713E-06  0.183104E-08
  0.124390E+01  0.439251E+01  0.537870E-06 -0.686888E-08
  0.124390E+01  0.536862E+01  0.709877E-06  0.469298E-08
  0.124390E+01  0.634473E+01  0.157710E-06 -0.461838E-08
  0.124390E+01  0.732084E+01  0.495403E-06 -0.751288E-08
  0.124390E+01  0.829696E+01  0.392911E-06  0.137057E-07
  0.124390E+01  0.927307E+01  0.215585E-06  0.518359E-08
  0.124390E+01  0.102492E+02  0.612157E-06  0.474826E-08
  0.124390E+01  0.112253E+02  0.265537E-09  0.557586E-10
  0.124390E+01  0.122014E+02  0.286589E-09  0.748090E-10
  0.124390E+01  0.131775E+02  0.151949E-08  0.277312E-09
  0.124390E+01  0.141536E+02  0.422346E-08  0.475058E-09
  0.124390E+01  0.151297E+02  0.147349E-08 -0.149761E-09
  0.124390E+01  0.161059E+02  0.141049E-06 -0.129712E-07
  0.124390E+01  0.170820E+02  0.128011E-06 -0.170898E-07
  0.124390E+01  0.180581E+02  0.109155E-06 -0.116878E-07
  0.124390E+01  0.190342E+02  0.104961E-06 -0.800071E-08
  0.124390E+01  0.200103E+02  0.277675E-06  0.488659E-07
  0.373171E+01  0.487913E+00  0.170864E-06 -0.507246E-08
  0.373171E+01  0.146374E+01  0.795540E-07 -0.257543E-08
  0.373171E+01  0.243957E+01  0.168911E-06  0.349795E-08
  0.373171E+01  0.341539E+01  0.285835E-06 -0.383028E-08
  0.373171E+01  0.439122E+01  0.358362E-06 -0.217834E-08
  0.373171E+01  0.536705E+01  0.579666E-06  0.217287E-07
  0.373171E+01  0.634287E+01  0.309612E-06  0.200452E-07
  0.373171E+01  0.731870E+01  0.386365E-06  0.877148E-08
  0.373171E+01  0.829452E+01  0.501437E-06  0.180952E-07
  0.373171E+01  0.927035E+01  0.459176E-06 -0.217909E-07
  0.373171E+01  0.102462E+02  0.701213E-06 -0.574134E-07
  0.373171E+01  0.112220E+02  0.294343E-09  0.364992E-09
  0.373171E+01  0.121978E+02  0.327372E-09  0.266208E-09
  0.373171E+01  0.131737E+02  0.645391E-09  0.393292E-09
  0.373171E+01  0.141495E+02  0.282996E-08  0.138263E-08
  0.373171E+01  0.151253E+02  0.907574E-07 -0.147467E-07
  0.373171E+01  0.161011E+02  0.186564E-06 -0.263038E-07
  0.373171E+01  0.170770E+02  0.129687E-06 -0.238199E-07
  0.373171E+01  0.180528E+02  0.105755E-06 -0.187728E-07
  0.373171E+01  0.190286E+02  0.160159E-06 -0.279812E-07
  0.373171E+01  0.200044E+02  0.280668E-06 -0.378256E-07
  0.621951E+01  0.487664E+00  0.163739E-06  0.212615E-08
  0.621951E+01  0.146299E+01  0.133044E-06 -0.163617E-07
  0.621951E+01  0.243832E+01  0.237572E-06 -0.550280E-07
  0.621951E+01  0.341365E+01  0.195060E-06 -0.540434E-07
  0.621951E+01  0.438897E+01  0.524252E-06 -0.859614E-07
  0.621951E+01  0.536430E+01  0.418323E-06 -0.318300E-07
  0.621951E+01  0.633963E+01  0.344807E-06  0.379647E-07
  0.621951E+01  0.731496E+01  0.499351E-06  0.403559E-07
  0.621951E+01  0.829028E+01  0.679696E-06 -0.373493E-07
  0.621951E+01  0.926561E+01  0.844633E-06 -0.113578E-06
  0.621951E+01  0.102409E+02  0.331276E-06 -0.324799E-07
  0.621951E+01  0.112163E+02  0.125542E-09  0.344973E-09
  0.621951E+01  0.121916E+02  0.451887E-09  0.643440E-09
  0.621951E+01  0.131669E+02  0.522149E-09  0.625526E-09
  0.621951E+01  0.141422E+02  0.419774E-09  0.644539E-09
  0.621951E+01  0.151176E+02  0.200097E-06 -0.925085E-08
  0.621951E+01  0.160929E+02  0.205324E-06 -0.162538E-07
  0.621951E+01  0.170682E+02  0.164057E-06 -0.220387E-07
  0.621951E+01  0.180436E+02  0.178674E-06 -0.401566E-07
  0.621951E+01  0.190189E+02  0.231654E-06 -0.490313E-07
  0.621951E+01  0.199942E+02  0.261359E-06 -0.279044E-07
  0.870732E+01  0.487467E+00  0.151645E-06 -0.152203E-08
  0.870732E+01  0.146240E+01  0.300454E-06 -0.261709E-07
  0.870732E+01  0.243734E+01  0.343999E-06 -0.710303E-07
  0.870732E+01  0.341227E+01  0.406004E-06 -0.144192E-06
  0.870732E+01  0.438721E+01  0.481477E-06 -0.158854E-06
  0.870732E+01  0.536214E+01  0.313093E-06 -0.157846E-06
  0.870732E+01  0.633708E+01  0.232453E-06 -0.109971E-06
  0.870732E+01  0.731201E+01  0.569813E-06 -0.103466E-06
  0.870732E+01  0.828695E+01  0.782219E-06 -0.516013E-07
  0.870732E+01  0.926188E+01  0.692576E-06  0.157699E-07
  0.870732E+01  0.102368E+02  0.417332E-06  0.207194E-07
  0.870732E+01  0.112118E+02  0.121122E-09  0.528965E-09
  0.870732E+01  0.121867E+02  0.244305E-09  0.530913E-09
  0.870732E+01  0.131616E+02  0.398026E-09  0.838997E-09
  0.870732E+01  0.141366E+02  0.238363E-09  0.780184E-09
  0.870732E+01  0.151115E+02  0.272265E-06 -0.169196E-07
  0.870732E+01  0.160864E+02  0.245514E-06 -0.325535E-07
  0.870732E+01  0.170614E+02  0.239770E-06 -0.231517E-07
  0.870732E+01  0.180363E+02  0.221860E-06 -0.139973E-07
  0.870732E+01  0.190112E+02  0.260518E-06 -0.726276E-11
  0.870732E+01  0.199862E+02  0.265648E-06 -0.754531E-08
  0.111951E+02  0.487166E+00  0.255860E-06 -0.214719E-07
  0.111951E+02  0.146150E+01  0.333909E-06 -0.602893E-07
  0.111951E+02  0.243583E+01  0.710036E-06 -0.207310E-06
  0.111951E+02  0.341016E+01  0.556045E-06 -0.291325E-06
  0.111951E+02  0.438450E+01  0.595862E-06 -0.279310E-06
  0.111951E+02  0.535883E+01  0.161187E-06 -0.193073E-06
  0.111951E+02  0.633316E+01  0.286518E-06 -0.174631E-06
  0.111951E+02  0.730749E+01  0.350159E-06 -0.125779E-06
  0.111951E+02  0.828183E+01  0.471743E-06 -0.531502E-07
  0.111951E+02  0.925616E+01  0.547278E-06 -0.225231E-07
  0.111951E+02  0.102305E+02  0.414804E-06 -0.131083E-07
  0.111951E+02  0.112048E+02  0.682737E-10  0.267366E-09
  0.111951E+02  0.121792E+02  0.149620E-09  0.369168E-09
  0.111951E+02  0.131535E+02  0.561604E-10  0.151807E-09
  0.111951E+02  0.141278E+02  0.126523E-09  0.282199E-09
  0.111951E+02  0.151022E+02  0.428824E-06 -0.116654E-07
  0.111951E+02  0.160765E+02  0.175838E-06 -0.146720E-07
  0.111951E+02  0.170508E+02  0.278089E-06 -0.215189E-07
  0.111951E+02  0.180252E+02  0.186116E-06 -0.255677E-07
  0.111951E+02  0.189995E+02  0.265188E-06 -0.113358E-07
  0.111951E+02  0.199738E+02  0.392386E-06 -0.108439E-08
  0.136829E+02  0.486936E+00  0.419357E-06 -0.425464E-07
  0.136829E+02  0.146081E+01  0.916436E-06 -0.190246E-06
  0.136829E+02  0.243468E+01  0.821573E-06 -0.178112E-06
  0.136829E+02  0.340855E+01  0.276752E-06 -0.996475E-07
  0.136829E+02  0.438242E+01  0.507430E-06 -0.127893E-06
  0.136829E+02  0.535629E+01  0.112114E-06 -0.835900E-07
  0.136829E+02  0.633016E+01  0.359499E-06 -0.163637E-06
  0.136829E+02  0.730403E+01  0.225042E-06 -0.101269E-06
  0.136829E+02  0.827791E+01  0.424084E-06 -0.996870E-07
  0.136829E+02  0.925178E+01  0.482577E-06 -0.543992E-07
  0.136829E+02  0.102256E+02  0.256769E-06 -0.224755E-08
  0.136829E+02  0.111995E+02  0.224723E-09  0.518464E-09
  0.136829E+02  0.121734E+02  0.222553E-09  0.364734E-09
  0.136829E+02  0.131473E+02  0.581393E-10  0.327910E-09
  0.136829E+02  0.141211E+02  0.563581E-10  0.371331E-09
  0.136829E+02  0.150950E+02  0.430865E-06  0.109618E-07
  0.136829E+02  0.160689E+02  0.245557E-06 -0.183588E-08
  0.136829E+02  0.170427E+02  0.338018E-06 -0.336551E-07
  0.136829E+02  0.180166E+02  0.164800E-06 -0.416453E-07
  0.136829E+02  0.189905E+02  0.143049E-06 -0.387756E-07
  0.136829E+02  0.199644E+02  0.428953E-06 -0.376293E-07
  0.161707E+02  0.486708E+00  0.691110E-06 -0.760074E-07
  0.161707E+02  0.146012E+01  0.100171E-05 -0.126433E-06
  0.161707E+02  0.243354E+01  0.798032E-06 -0.940480E-07
  0.161707E+02  0.340696E+01  0.357791E-06 -0.925201E-07
  0.161707E+02  0.438037E+01  0.273481E-06 -0.728359E-07
  0.161707E+02  0.535379E+01  0.326813E-06 -0.171573E-06
  0.161707E+02  0.632720E+01  0.226381E-06 -0.144109E-06
  0.161707E+02  0.730062E+01  0.243090E-06 -0.154614E-06
  0.161707E+02  0.827403E+01  0.408294E-06 -0.103899E-06
  0.161707E+02  0.924745E+01  0.247002E-06 -0.413176E-07
  0.161707E+02  0.102209E+02  0.315106E-06 -0.120587E-07
  0.161707E+02  0.111943E+02  0.139901E-09  0.370425E-09
  0.161707E+02  0.121677E+02  0.320373E-09  0.530601E-09
  0.161707E+02  0.131411E+02  0.239606E-09  0.430627E-09
  0.161707E+02  0.141145E+02  0.520084E-10  0.173303E-09
  0.161707E+02  0.150879E+02  0.256338E-06  0.558558E-08
  0.161707E+02  0.160614E+02  0.268593E-06  0.164803E-07
  0.161707E+02  0.170348E+02  0.389015E-06  0.819776E-08
  0.161707E+02  0.180082E+02  0.285682E-06 -0.108900E-07
  0.161707E+02  0.189816E+02  0.207853E-06 -0.406709E-07
  0.161707E+02  0.199550E+02  0.280694E-06 -0.271916E-07
  0.186585E+02  0.486500E+00  0.108467E-05  0.931877E-07
  0.186585E+02  0.145950E+01  0.844677E-06  0.684316E-08
  0.186585E+02  0.243250E+01  0.103144E-05 -0.118997E-06
  0.186585E+02  0.340550E+01  0.456377E-06 -0.130158E-06
  0.186585E+02  0.437850E+01  0.590043E-06 -0.161007E-06
  0.186585E+02  0.535150E+01  0.298126E-06 -0.102706E-06
  0.186585E+02  0.632450E+01  0.227860E-06 -0.912224E-07
  0.186585E+02  0.729750E+01  0.135207E-06 -0.582971E-07
  0.186585E+02  0.827049E+01  0.254527E-06 -0.389562E-07
  0.186585E+02  0.924349E+01  0.240112E-06 -0.106744E-07
  0.186585E+02  0.102165E+02  0.230529E-06 -0.184503E-09
  0.186585E+02  0.111895E+02  0.234916E-09  0.630358E-09
  0.186585E+02  0.121625E+02  0.185338E-09  0.400611E-09
  0.186585E+02  0.131355E+02  0.440478E-09  0.493104E-09
  0.186585E+02  0.141085E+02  0.267690E-09  0.532446E-09
  0.186585E+02  0.150815E+02  0.231653E-06 -0.545042E-08
  0.186585E+02  0.160545E+02  0.200517E-06 -0.116204E-07
  0.186585E+02  0.170275E+02  0.377560E-06 -0.123767E-07
  0.186585E+02  0.180005E+02  0.213810E-06 -0.306407E-09
  0.186585E+02  0.189735E+02  0.260044E-06 -0.164643E-08
  0.186585E+02  0.199465E+02  0.259007E-06 -0.227686E-07
  0.211463E+02  0.486415E+00  0.368396E-06  0.111542E-07
  0.211463E+02  0.145924E+01  0.177016E-05  0.112112E-06
  0.211463E+02  0.243207E+01  0.117779E-05  0.277809E-07
  0.211463E+02  0.340490E+01  0.502954E-06 -0.558157E-07
  0.211463E+02  0.437773E+01  0.376688E-06 -0.417858E-07
  0.211463E+02  0.535056E+01  0.204474E-06 -0.822185E-08
  0.211463E+02  0.632339E+01  0.201201E-06 -0.680011E-08
  0.211463E+02  0.729622E+01  0.136827E-06 -0.155217E-07
  0.211463E+02  0.826905E+01  0.167165E-06 -0.442523E-08
  0.211463E+02  0.924188E+01  0.148154E-06  0.283194E-07
  0.211463E+02  0.102147E+02  0.371775E-06  0.262864E-07
  0.211463E+02  0.111875E+02  0.293216E-09  0.108181E-08
  0.211463E+02  0.121604E+02  0.145471E-09  0.106414E-08
  0.211463E+02  0.131332E+02  0.648040E-09  0.166839E-08
  0.211463E+02  0.141060E+02  0.583648E-09  0.184886E-08
  0.211463E+02  0.150789E+02  0.258968E-06 -0.133061E-07
  0.211463E+02  0.160517E+02  0.250293E-06 -0.524711E-07
  0.211463E+02  0.170245E+02  0.242217E-06 -0.596728E-07
  0.211463E+02  0.179974E+02  0.200801E-06 -0.522658E-07
  0.211463E+02  0.189702E+02  0.259741E-06 -0.588504E-07
  0.211463E+02  0.199430E+02  0.144948E-06 -0.267263E-07
  0.236341E+02  0.486338E+00  0.585491E-06 -0.391360E-08
  0.236341E+02  0.145901E+01  0.975212E-06  0.652404E-07
  0.236341E+02  0.243169E+01  0.120873E-05  0.139152E-06
  0.236341E+02  0.340437E+01  0.723773E-06  0.559953E-07
  0.236341E+02  0.437704E+01  0.171765E-06  0.187410E-07
  0.236341E+02  0.534972E+01  0.184042E-06  0.410174E-07
  0.236341E+02  0.632239E+01  0.210204E-06  0.324113E-07
  0.236341E+02  0.729507E+01  0.125380E-06  0.185061E-07
  0.236341E+02  0.826775E+01  0.134821E-06  0.181384E-07
  0.236341E+02  0.924042E+01  0.909483E-07  0.108612E-07
  0.236341E+02  0.102131E+02  0.456467E-06 -0.130559E-08
  0.236341E+02  0.111858E+02  0.558634E-10  0.186934E-09
  0.236341E+02  0.121585E+02  0.798406E-10  0.286692E-09
  0.236341E+02  0.131311E+02  0.146284E-09  0.256639E-09
  0.236341E+02  0.141038E+02  0.419230E-09  0.556883E-09
  0.236341E+02  0.150765E+02  0.373144E-06 -0.221896E-07
  0.236341E+02  0.160492E+02  0.273722E-06 -0.496157E-07
  0.236341E+02  0.170218E+02  0.177851E-06 -0.509809E-07
  0.236341E+02  0.179945E+02  0.158209E-06 -0.425960E-07
  0.236341E+02  0.189672E+02  0.110905E-06 -0.195452E-07
  0.236341E+02  0.199399E+02  0.103490E-06 -0.116638E-07
  0.261220E+02  0.486227E+00  0.324583E-06  0.203080E-07
  0.261220E+02  0.145868E+01  0.608765E-06  0.569116E-07
  0.261220E+02  0.243114E+01  0.100866E-05  0.639901E-07
  0.261220E+02  0.340359E+01  0.928128E-06  0.805227E-07
  0.261220E+02  0.437604E+01  0.915144E-07  0.215614E-07
  0.261220E+02  0.534850E+01  0.138516E-06  0.330915E-07
  0.261220E+02  0.632095E+01  0.225907E-06  0.439602E-07
  0.261220E+02  0.729341E+01  0.173854E-06  0.313931E-07
  0.261220E+02  0.826586E+01  0.133771E-06  0.153016E-07
  0.261220E+02  0.923832E+01  0.238293E-06 -0.165297E-07
  0.261220E+02  0.102108E+02  0.298055E-06 -0.145567E-07
  0.261220E+02  0.111832E+02  0.180744E-10  0.108427E-09
  0.261220E+02  0.121557E+02  0.306369E-10  0.147799E-09
  0.261220E+02  0.131281E+02  0.438520E-10  0.125850E-09
  0.261220E+02  0.141006E+02  0.142650E-09  0.180443E-09
  0.261220E+02  0.150730E+02  0.626849E-06 -0.323548E-07
  0.261220E+02  0.160455E+02  0.323948E-06 -0.427821E-07
  0.261220E+02  0.170179E+02  0.175627E-06 -0.332260E-07
  0.261220E+02  0.179904E+02  0.132743E-06 -0.209722E-07
  0.261220E+02  0.189629E+02  0.723983E-07 -0.114729E-07
  0.261220E+02  0.199353E+02  0.120907E-06 -0.144861E-07
  0.286098E+02  0.486088E+00  0.227344E-06 -0.511280E-08
  0.286098E+02  0.145826E+01  0.444181E-06  0.282392E-07
  0.286098E+02  0.243044E+01  0.985949E-06  0.180881E-06
  0.286098E+02  0.340262E+01  0.674504E-06  0.180903E-06
  0.286098E+02  0.437479E+01  0.423455E-06  0.167417E-06
  0.286098E+02  0.534697E+01  0.195975E-06  0.455127E-07
  0.286098E+02  0.631915E+01  0.272852E-06  0.190361E-07
  0.286098E+02  0.729132E+01  0.217020E-06  0.166079E-07
  0.286098E+02  0.826350E+01  0.187004E-06  0.320264E-08
  0.286098E+02  0.923567E+01  0.244768E-06 -0.869920E-08
  0.286098E+02  0.102078E+02  0.318650E-06 -0.704753E-08
  0.286098E+02  0.111800E+02  0.720352E-10  0.306001E-09
  0.286098E+02  0.121522E+02  0.870920E-10  0.198727E-09
  0.286098E+02  0.131244E+02  0.706434E-10  0.187128E-09
  0.286098E+02  0.140966E+02  0.540409E-10  0.606977E-10
  0.286098E+02  0.150687E+02  0.835887E-06  0.648350E-07
  0.286098E+02  0.160409E+02  0.427249E-06  0.334546E-07
  0.286098E+02  0.170131E+02  0.218047E-06 -0.150468E-07
  0.286098E+02  0.179853E+02  0.136986E-06 -0.207400E-07
  0.286098E+02  0.189574E+02  0.857717E-07 -0.158171E-07
  0.286098E+02  0.199296E+02  0.140766E-06 -0.134421E-07
  0.310976E+02  0.485922E+00  0.252095E-06 -0.351012E-08
  0.310976E+02  0.145777E+01  0.201986E-06  0.965035E-09
  0.310976E+02  0.242961E+01  0.311412E-06  0.368794E-07
  0.310976E+02  0.340145E+01  0.913522E-06  0.195996E-06
  0.310976E+02  0.437330E+01  0.673634E-06  0.234810E-06
  0.310976E+02  0.534514E+01  0.437088E-06  0.191459E-06
  0.310976E+02  0.631699E+01  0.388120E-06  0.969461E-07
  0.310976E+02  0.728883E+01  0.215805E-06  0.519155E-07
  0.310976E+02  0.826067E+01  0.274327E-06  0.219515E-07
  0.310976E+02  0.923252E+01  0.285455E-06 -0.161322E-07
  0.310976E+02  0.102044E+02  0.164561E-06 -0.117482E-07
  0.310976E+02  0.111762E+02  0.124152E-09  0.727102E-09
  0.310976E+02  0.121481E+02  0.630667E-09  0.125952E-08
  0.310976E+02  0.131199E+02  0.237666E-09  0.265422E-09
  0.310976E+02  0.140917E+02  0.469289E-09  0.231977E-09
  0.310976E+02  0.150636E+02  0.470548E-06 -0.271659E-08
  0.310976E+02  0.160354E+02  0.823843E-06  0.178879E-07
  0.310976E+02  0.170073E+02  0.286583E-06  0.123598E-08
  0.310976E+02  0.179791E+02  0.189107E-06 -0.361404E-08
  0.310976E+02  0.189510E+02  0.770398E-07 -0.453049E-08
  0.310976E+02  0.199228E+02  0.186702E-06 -0.140750E-07
  0.335854E+02  0.485687E+00  0.265480E-06  0.193871E-07
  0.335854E+02  0.145706E+01  0.346902E-06  0.478204E-07
  0.335854E+02  0.242843E+01  0.323833E-06  0.543525E-07
  0.335854E+02  0.339981E+01  0.561346E-06  0.912659E-07
  0.335854E+02  0.437118E+01  0.548702E-06  0.177620E-06
  0.335854E+02  0.534255E+01  0.466993E-06  0.161100E-06
  0.335854E+02  0.631393E+01  0.561504E-06  0.155024E-06
  0.335854E+02  0.728530E+01  0.330521E-06  0.100938E-06
  0.335854E+02  0.825667E+01  0.543580E-06  0.362318E-07
  0.335854E+02  0.922805E+01  0.389286E-06 -0.741962E-09
  0.335854E+02  0.101994E+02  0.162980E-06  0.435446E-09
  0.335854E+02  0.111708E+02  0.198507E-09  0.156356E-08
  0.335854E+02  0.121422E+02  0.117701E-09  0.107118E-08
  0.335854E+02  0.131135E+02  0.869219E-09  0.167110E-08
  0.335854E+02  0.140849E+02  0.768349E-09  0.134156E-08
  0.335854E+02  0.150563E+02  0.671216E-06 -0.625183E-08
  0.335854E+02  0.160277E+02  0.700368E-06  0.137129E-07
  0.335854E+02  0.169990E+02  0.331421E-06  0.236973E-07
  0.335854E+02  0.179704E+02  0.130830E-06  0.138254E-07
  0.335854E+02  0.189418E+02  0.137953E-06  0.801367E-09
  0.335854E+02  0.199132E+02  0.168976E-06 -0.138646E-07
  0.360732E+02  0.485352E+00  0.214052E-06  0.109375E-07
  0.360732E+02  0.145606E+01  0.271028E-06  0.558452E-07
  0.360732E+02  0.242676E+01  0.312482E-06  0.894511E-07
  0.360732E+02  0.339746E+01  0.467784E-06  0.128502E-06
  0.360732E+02  0.436817E+01  0.389196E-06  0.184818E-06
  0.360732E+02  0.533887E+01  0.700728E-06  0.259782E-06
  0.360732E+02  0.630957E+01  0.575569E-06  0.254254E-06
  0.360732E+02  0.728028E+01  0.675536E-06  0.136008E-06
  0.360732E+02  0.825098E+01  0.547616E-06  0.678717E-07
  0.360732E+02  0.922169E+01  0.417385E-06  0.827044E-07
  0.360732E+02  0.101924E+02  0.291637E-06  0.391420E-07
  0.360732E+02  0.111631E+02  0.193290E-08  0.943893E-08
  0.360732E+02  0.121338E+02  0.125778E-08  0.618787E-08
  0.360732E+02  0.131045E+02  0.210190E-08  0.428880E-08
  0.360732E+02  0.140752E+02  0.129207E-08  0.274172E-08
  0.360732E+02  0.150459E+02  0.463040E-06  0.920058E-08
  0.360732E+02  0.160166E+02  0.525636E-06  0.355645E-07
  0.360732E+02  0.169873E+02  0.325867E-06  0.656562E-07
  0.360732E+02  0.179580E+02  0.163000E-06  0.313418E-07
  0.360732E+02  0.189287E+02  0.154796E-06  0.109266E-07
  0.360732E+02  0.198994E+02  0.185014E-06 -0.266236E-08
  0.385610E+02  0.484968E+00  0.228525E-06 -0.659373E-09
  0.385610E+02  0.145490E+01  0.158035E-06  0.576824E-09
  0.385610E+02  0.242484E+01  0.336707E-06  0.165898E-07
  0.385610E+02  0.339478E+01  0.396579E-06  0.402365E-07
  0.385610E+02  0.436471E+01  0.381271E-06  0.870211E-07
  0.385610E+02  0.533465E+01  0.384739E-06  0.154961E-06
  0.385610E+02  0.630458E+01  0.435043E-06  0.280992E-06
  0.385610E+02  0.727452E+01  0.104664E-05  0.386841E-06
  0.385610E+02  0.824446E+01  0.676369E-06  0.270055E-06
  0.385610E+02  0.921439E+01  0.492165E-06  0.163293E-06
  0.385610E+02  0.101843E+02  0.700586E-06  0.831648E-07
  0.385610E+02  0.111543E+02  0.886534E-09  0.527480E-08
  0.385610E+02  0.121242E+02  0.304166E-08  0.713554E-08
  0.385610E+02  0.130941E+02  0.249303E-08  0.576109E-08
  0.385610E+02  0.140641E+02  0.315391E-08  0.597031E-08
  0.385610E+02  0.150340E+02  0.468205E-06  0.170374E-07
  0.385610E+02  0.160039E+02  0.284176E-06  0.327055E-07
  0.385610E+02  0.169739E+02  0.220442E-06  0.441431E-07
  0.385610E+02  0.179438E+02  0.290007E-06  0.474632E-07
  0.385610E+02  0.189138E+02  0.155732E-06  0.969443E-08
  0.385610E+02  0.198837E+02  0.264660E-06 -0.136086E-07
  0.410488E+02  0.484680E+00  0.255740E-06 -0.106105E-07
  0.410488E+02  0.145404E+01  0.219392E-06 -0.229085E-07
  0.410488E+02  0.242340E+01  0.203280E-06 -0.904670E-08
  0.410488E+02  0.339276E+01  0.365249E-06  0.166100E-07
  0.410488E+02  0.436212E+01  0.216882E-06  0.422295E-07
  0.410488E+02  0.533148E+01  0.231540E-06  0.831170E-07
  0.410488E+02  0.630084E+01  0.316202E-06  0.939788E-07
  0.410488E+02  0.727020E+01  0.627420E-06  0.119796E-06
  0.410488E+02  0.823955E+01  0.855446E-06  0.204573E-06
  0.410488E+02  0.920891E+01  0.734528E-06  0.176980E-06
  0.410488E+02  0.101783E+02  0.100934E-05  0.771698E-07
  0.410488E+02  0.111476E+02  0.500560E-09  0.841898E-08
  0.410488E+02  0.121170E+02  0.168809E-08  0.890543E-08
  0.410488E+02  0.130864E+02  0.157834E-08  0.897835E-08
  0.410488E+02  0.140557E+02  0.267346E-08  0.106946E-07
  0.410488E+02  0.150251E+02  0.300464E-06  0.270903E-07
  0.410488E+02  0.159944E+02  0.278538E-06  0.414252E-07
  0.410488E+02  0.169638E+02  0.264886E-06  0.292652E-07
  0.410488E+02  0.179331E+02  0.271613E-06  0.267081E-07
  0.410488E+02  0.189025E+02  0.377430E-06  0.171637E-07
  0.410488E+02  0.198719E+02  0.180666E-06 -0.102236E-07
  0.435366E+02  0.484413E+00  0.244614E-06 -0.695995E-09
  0.435366E+02  0.145324E+01  0.140303E-06  0.384136E-10
  0.435366E+02  0.242207E+01  0.234018E-06 -0.479996E-08
  0.435366E+02  0.339089E+01  0.263739E-06  0.131664E-07
  0.435366E+02  0.435972E+01  0.251419E-06  0.496887E-07
  0.435366E+02  0.532855E+01  0.154056E-06  0.303847E-07
  0.435366E+02  0.629737E+01  0.427471E-06  0.354264E-07
  0.435366E+02  0.726620E+01  0.630481E-06  0.755983E-07
  0.435366E+02  0.823503E+01  0.814476E-06  0.106783E-06
  0.435366E+02  0.920385E+01  0.868203E-06  0.955311E-07
  0.435366E+02  0.101727E+02  0.128811E-05  0.413185E-07
  0.435366E+02  0.111415E+02  0.232019E-09  0.569041E-08
  0.435366E+02  0.121103E+02  0.153394E-09  0.558124E-08
  0.435366E+02  0.130792E+02  0.564385E-09  0.109991E-07
  0.435366E+02  0.140480E+02  0.735616E-09  0.698497E-08
  0.435366E+02  0.150168E+02  0.265373E-06  0.131264E-07
  0.435366E+02  0.159856E+02  0.396997E-06  0.297922E-08
  0.435366E+02  0.169545E+02  0.276117E-06 -0.354280E-08
  0.435366E+02  0.179233E+02  0.237664E-06  0.457589E-08
  0.435366E+02  0.188921E+02  0.289234E-06  0.165377E-07
  0.435366E+02  0.198609E+02  0.328259E-06  0.108318E-07
  0.460244E+02  0.484159E+00  0.202397E-06  0.869444E-08
  0.460244E+02  0.145248E+01  0.148821E-06  0.414304E-08
  0.460244E+02  0.242079E+01  0.215607E-06 -0.644107E-08
  0.460244E+02  0.338911E+01  0.148442E-06 -0.339798E-08
  0.460244E+02  0.435743E+01  0.148887E-06  0.121529E-07
  0.460244E+02  0.532574E+01  0.381323E-06 -0.141731E-07
  0.460244E+02  0.629406E+01  0.374205E-06 -0.408361E-07
  0.460244E+02  0.726238E+01  0.367913E-06  0.951893E-09
  0.460244E+02  0.823070E+01  0.754057E-06  0.655483E-07
  0.460244E+02  0.919901E+01  0.110878E-05  0.129531E-06
  0.460244E+02  0.101673E+02  0.162694E-05  0.682853E-07
  0.460244E+02  0.111356E+02  0.141968E-09  0.260603E-08
  0.460244E+02  0.121040E+02 -0.336052E-09  0.341295E-08
  0.460244E+02  0.130723E+02  0.248365E-09  0.220085E-08
  0.460244E+02  0.140406E+02  0.103956E-08  0.362233E-08
  0.460244E+02  0.150089E+02  0.258348E-06  0.122027E-08
  0.460244E+02  0.159772E+02  0.501455E-06  0.482662E-08
  0.460244E+02  0.169456E+02  0.330506E-06 -0.208904E-08
  0.460244E+02  0.179139E+02  0.323971E-06 -0.182407E-07
  0.460244E+02  0.188822E+02  0.342327E-06 -0.757389E-08
  0.460244E+02  0.198505E+02  0.456063E-06 -0.742360E-08
  0.485122E+02  0.483910E+00  0.153038E-06  0.220565E-08
  0.485122E+02  0.145173E+01  0.305191E-06 -0.754446E-08
  0.485122E+02  0.241955E+01  0.303956E-06 -0.115013E-07
  0.485122E+02  0.338737E+01  0.124012E-06  0.424012E-09
  0.485122E+02  0.435519E+01  0.150363E-06 -0.671054E-08
  0.485122E+02  0.532301E+01  0.400591E-06  0.146566E-07
  0.485122E+02  0.629083E+01  0.312910E-06  0.201564E-07
  0.485122E+02  0.725865E+01  0.360862E-06 -0.379621E-08
  0.485122E+02  0.822647E+01  0.555286E-06  0.769490E-08
  0.485122E+02  0.919429E+01  0.720508E-06  0.648993E-07
  0.485122E+02  0.101621E+02  0.197431E-05  0.773368E-07
  0.485122E+02  0.111299E+02  0.166687E-09  0.143458E-08
  0.485122E+02  0.120978E+02  0.562881E-09  0.266278E-08
  0.485122E+02  0.130656E+02  0.232747E-09  0.215516E-08
  0.485122E+02  0.140334E+02  0.346454E-09  0.314280E-08
  0.485122E+02  0.150012E+02  0.391062E-06  0.913897E-09
  0.485122E+02  0.159690E+02  0.428420E-06  0.586358E-08
  0.485122E+02  0.169369E+02  0.544335E-06 -0.277714E-07
  0.485122E+02  0.179047E+02  0.314469E-06 -0.598416E-07
  0.485122E+02  0.188725E+02  0.250200E-06 -0.382386E-07
  0.485122E+02  0.198403E+02  0.476432E-06 -0.254477E-07
  0.510000E+02  0.483707E+00  0.305639E-06 -0.247535E-07
  0.510000E+02  0.145112E+01  0.345806E-06 -0.213503E-07
  0.510000E+02  0.241853E+01  0.167642E-06  0.162990E-07
  0.510000E+02  0.338595E+01  0.173516E-06  0.224238E-07
  0.510000E+02  0.435336E+01  0.185606E-06  0.241715E-07
  0.510000E+02  0.532077E+01  0.184172E-06  0.231188E-07
  0.510000E+02  0.628819E+01  0.322193E-06  0.532607E-07
  0.510000E+02  0.725560E+01  0.358329E-06  0.551535E-07
  0.510000E+02  0.822302E+01  0.503760E-06  0.449739E-07
  0.510000E+02  0.919043E+01  0.523494E-06 -0.123246E-07
  0.510000E+02  0.101578E+02  0.169496E-05 -0.539389E-07
  0.510000E+02  0.111253E+02  0.425310E-09  0.203713E-08
  0.510000E+02  0.120927E+02  0.847077E-10  0.685255E-09
  0.510000E+02  0.130601E+02  0.349866E-09  0.222152E-08
  0.510000E+02  0.140275E+02  0.173607E-09  0.280514E-08
  0.510000E+02  0.149949E+02  0.347089E-06  0.540026E-08
  0.510000E+02  0.159623E+02  0.463124E-06  0.222977E-07
  0.510000E+02  0.169297E+02  0.668659E-06  0.483829E-07
  0.510000E+02  0.178972E+02  0.353181E-06  0.972316E-08
  0.510000E+02  0.188646E+02  0.369000E-06 -0.353505E-07
  0.510000E+02  0.198320E+02  0.488995E-06 -0.299487E-07
  0.534878E+02  0.483459E+00  0.306752E-06  0.256078E-08
  0.534878E+02  0.145038E+01  0.126587E-06  0.106340E-07
  0.534878E+02  0.241729E+01  0.199020E-06  0.170112E-07
  0.534878E+02  0.338421E+01  0.158881E-06  0.204064E-07
  0.534878E+02  0.435113E+01  0.115667E-06  0.324944E-07
  0.534878E+02  0.531805E+01  0.179810E-06  0.455448E-07
  0.534878E+02  0.628497E+01  0.201112E-06  0.340802E-07
  0.534878E+02  0.725188E+01  0.296647E-06  0.318753E-07
  0.534878E+02  0.821880E+01  0.489482E-06 -0.141258E-08
  0.534878E+02  0.918572E+01  0.840782E-06 -0.627208E-07
  0.534878E+02  0.101526E+02  0.999087E-06 -0.215276E-07
  0.534878E+02  0.111196E+02  0.128449E-09  0.311874E-09
  0.534878E+02  0.120865E+02  0.114724E-09  0.769361E-09
  0.534878E+02  0.130534E+02  0.361396E-10  0.352085E-09
  0.534878E+02  0.140203E+02  0.834502E-10  0.497670E-09
  0.534878E+02  0.149872E+02  0.423815E-06  0.253130E-08
  0.534878E+02  0.159541E+02  0.431105E-06  0.117000E-08
  0.534878E+02  0.169211E+02  0.623135E-06  0.183583E-07
  0.534878E+02  0.178880E+02  0.643664E-06  0.352389E-07
  0.534878E+02  0.188549E+02  0.546628E-06 -0.163214E-07
  0.534878E+02  0.198218E+02  0.584865E-06 -0.260929E-07
  0.559756E+02  0.483236E+00  0.202334E-06  0.213719E-08
  0.559756E+02  0.144971E+01  0.141169E-06 -0.260853E-08
  0.559756E+02  0.241618E+01  0.161051E-06 -0.114068E-07
  0.559756E+02  0.338265E+01  0.101167E-06  0.413613E-08
  0.559756E+02  0.434912E+01  0.723094E-07  0.152425E-07
  0.559756E+02  0.531559E+01  0.108868E-06  0.223436E-07
  0.559756E+02  0.628206E+01  0.275074E-06  0.521322E-07
  0.559756E+02  0.724853E+01  0.416177E-06  0.624016E-08
  0.559756E+02  0.821501E+01  0.618439E-06 -0.364999E-07
  0.559756E+02  0.918148E+01  0.554532E-06 -0.243480E-07
  0.559756E+02  0.101479E+02  0.865017E-06 -0.158413E-07
  0.559756E+02  0.111144E+02  0.212098E-10  0.151998E-09
  0.559756E+02  0.120809E+02  0.515613E-10  0.147782E-09
  0.559756E+02  0.130474E+02  0.234493E-09  0.412412E-09
  0.559756E+02  0.140138E+02  0.680200E-10  0.289682E-09
  0.559756E+02  0.149803E+02  0.433803E-06 -0.109381E-07
  0.559756E+02  0.159468E+02  0.622319E-06 -0.438735E-07
  0.559756E+02  0.169132E+02  0.630453E-06 -0.370514E-07
  0.559756E+02  0.178797E+02  0.824871E-06  0.636326E-09
  0.559756E+02  0.188462E+02  0.674098E-06 -0.632194E-08
  0.559756E+02  0.198127E+02  0.572673E-06 -0.214653E-07
  0.584634E+02  0.482961E+00  0.275106E-06 -0.139530E-07
  0.584634E+02  0.144888E+01  0.143540E-06 -0.193565E-07
  0.584634E+02  0.241481E+01  0.102547E-06 -0.691810E-08
  0.584634E+02  0.338073E+01  0.645186E-07 -0.505325E-08
  0.584634E+02  0.434665E+01  0.649715E-07 -0.804785E-08
  0.584634E+02  0.531258E+01  0.139865E-06 -0.923348E-08
  0.584634E+02  0.627850E+01  0.146147E-06 -0.816832E-08
  0.584634E+02  0.724442E+01  0.533267E-06  0.106058E-07
  0.584634E+02  0.821035E+01  0.439102E-06  0.167608E-07
  0.584634E+02  0.917627E+01  0.837146E-06  0.129697E-07
  0.584634E+02  0.101422E+02  0.836036E-06  0.709378E-08
  0.584634E+02  0.111081E+02  0.229716E-10  0.117928E-09
  0.584634E+02  0.120740E+02  0.311544E-10  0.144336E-09
  0.584634E+02  0.130400E+02  0.571228E-10  0.237386E-09
  0.584634E+02  0.140059E+02  0.121832E-09  0.268716E-09
  0.584634E+02  0.149718E+02  0.629542E-06 -0.297308E-07
  0.584634E+02  0.159377E+02  0.550852E-06 -0.394373E-07
  0.584634E+02  0.169037E+02  0.635140E-06 -0.570669E-07
  0.584634E+02  0.178696E+02  0.562190E-06 -0.350400E-07
  0.584634E+02  0.188355E+02  0.903830E-06  0.368574E-07
  0.584634E+02  0.198014E+02  0.681685E-06  0.441789E-08
  0.609512E+02  0.482774E+00  0.225079E-06 -0.777602E-08
  0.609512E+02  0.144832E+01  0.108151E-06 -0.188483E-07
  0.609512E+02  0.241387E+01  0.676003E-07 -0.136462E-07
  0.609512E+02  0.337942E+01  0.857495E-07 -0.988352E-08
  0.609512E+02  0.434496E+01  0.641174E-07 -0.190768E-07
  0.609512E+02  0.531051E+01  0.125982E-06 -0.362926E-07
  0.609512E+02  0.627606E+01  0.157866E-06 -0.391865E-07
  0.609512E+02  0.724161E+01  0.323338E-06 -0.434541E-08
  0.609512E+02  0.820716E+01  0.606974E-06  0.168560E-07
  0.609512E+02  0.917270E+01  0.624790E-06  0.145859E-07
  0.609512E+02  0.101383E+02  0.976716E-06  0.832178E-08
  0.609512E+02  0.111038E+02  0.551232E-11  0.374057E-09
  0.609512E+02  0.120693E+02  0.172579E-10  0.682963E-09
  0.609512E+02  0.130349E+02  0.887879E-10  0.640688E-09
  0.609512E+02  0.140004E+02  0.572121E-09  0.439117E-09
  0.609512E+02  0.149660E+02  0.728351E-06 -0.139320E-07
  0.609512E+02  0.159315E+02  0.681548E-06 -0.640440E-07
  0.609512E+02  0.168971E+02  0.790682E-06 -0.682297E-07
  0.609512E+02  0.178626E+02  0.488684E-06 -0.614366E-07
  0.609512E+02  0.188282E+02  0.788931E-06 -0.116025E-06