title="2d vectors xy, t=    0.150E+03"
variables="x","y","vx","vy"
zone i=    41, j=    41, T="   0.150E+03"
  0.124390E+01  0.124390E+01  0.145516E-06  0.269233E-09
  0.124390E+01  0.373171E+01  0.905812E-07  0.224634E-08
  0.124390E+01  0.621951E+01  0.414533E-07 -0.461690E-09
  0.124390E+01  0.870732E+01  0.154342E-06 -0.207068E-07
  0.124390E+01  0.111951E+02  0.424203E-06 -0.766022E-07
  0.124390E+01  0.136829E+02  0.391473E-06 -0.523637E-07
  0.124390E+01  0.161707E+02  0.206588E-06 -0.172721E-07
  0.124390E+01  0.186585E+02  0.349420E-06 -0.216226E-07
  0.124390E+01  0.211463E+02  0.650048E-06 -0.324751E-07
  0.124390E+01  0.236341E+02  0.475265E-06  0.510262E-07
  0.124390E+01  0.261220E+02  0.483468E-06  0.400761E-07
  0.124390E+01  0.286098E+02  0.747544E-06  0.553114E-07
  0.124390E+01  0.310976E+02  0.408526E-06  0.368679E-07
  0.124390E+01  0.335854E+02  0.544375E-06  0.418938E-07
  0.124390E+01  0.360732E+02  0.605534E-06  0.874801E-07
  0.124390E+01  0.385610E+02  0.825112E-06  0.775252E-07
  0.124390E+01  0.410488E+02  0.941560E-06  0.219765E-07
  0.124390E+01  0.435366E+02  0.924844E-06 -0.267235E-07
  0.124390E+01  0.460244E+02  0.361229E-06 -0.104775E-07
  0.124390E+01  0.485122E+02  0.355753E-06  0.121532E-07
  0.124390E+01  0.510000E+02  0.147223E-06  0.876998E-08
  0.124390E+01  0.534878E+02  0.184897E-06 -0.394459E-08
  0.124390E+01  0.559756E+02  0.119130E-06 -0.141073E-07
  0.124390E+01  0.584634E+02  0.160664E-06 -0.277760E-07
  0.124390E+01  0.609512E+02  0.232876E-06 -0.175359E-07
  0.124390E+01  0.634390E+02  0.963560E-07 -0.107285E-07
  0.124390E+01  0.659268E+02  0.233606E-06  0.128171E-07
  0.124390E+01  0.684146E+02  0.904289E-07  0.125504E-07
  0.124390E+01  0.709024E+02  0.512079E-07 -0.155579E-09
  0.124390E+01  0.733902E+02  0.573637E-07 -0.266071E-08
  0.124390E+01  0.758780E+02  0.900578E-07  0.565352E-08
  0.124390E+01  0.783659E+02  0.936734E-07  0.357192E-08
  0.124390E+01  0.808537E+02  0.542807E-07  0.107125E-08
  0.124390E+01  0.833415E+02  0.676212E-07  0.525573E-08
  0.124390E+01  0.858293E+02  0.533892E-07 -0.875424E-09
  0.124390E+01  0.883171E+02  0.217778E-06 -0.108904E-09
  0.124390E+01  0.908049E+02  0.175816E-06  0.127209E-08
  0.124390E+01  0.932927E+02  0.198332E-06 -0.105661E-07
  0.124390E+01  0.957805E+02  0.104430E-06 -0.268466E-08
  0.124390E+01  0.982683E+02  0.790354E-07  0.525673E-08
  0.124390E+01  0.100756E+03  0.238201E-07  0.130702E-07
  0.373171E+01  0.124390E+01  0.170864E-06  0.256660E-08
  0.373171E+01  0.373171E+01  0.820140E-07  0.367513E-08
  0.373171E+01  0.621951E+01  0.786770E-07 -0.134649E-07
  0.373171E+01  0.870732E+01  0.312673E-06 -0.107440E-06
  0.373171E+01  0.111951E+02  0.474003E-06 -0.143062E-06
  0.373171E+01  0.136829E+02  0.535823E-06 -0.124977E-06
  0.373171E+01  0.161707E+02  0.295345E-06 -0.792225E-07
  0.373171E+01  0.186585E+02  0.699954E-06 -0.613815E-07
  0.373171E+01  0.211463E+02  0.434521E-06  0.165199E-07
  0.373171E+01  0.236341E+02  0.327045E-06  0.334898E-07
  0.373171E+01  0.261220E+02  0.201915E-06  0.349996E-07
  0.373171E+01  0.286098E+02  0.279559E-06  0.383990E-07
  0.373171E+01  0.310976E+02  0.537709E-06  0.911043E-07
  0.373171E+01  0.335854E+02  0.559784E-06  0.817851E-07
  0.373171E+01  0.360732E+02  0.627320E-06  0.148711E-06
  0.373171E+01  0.385610E+02  0.862434E-06  0.219038E-06
  0.373171E+01  0.410488E+02  0.128107E-05  0.200167E-06
  0.373171E+01  0.435366E+02  0.105160E-05  0.108782E-06
  0.373171E+01  0.460244E+02  0.425490E-06  0.210683E-07
  0.373171E+01  0.485122E+02  0.224384E-06  0.656836E-08
  0.373171E+01  0.510000E+02  0.154068E-06  0.167170E-07
  0.373171E+01  0.534878E+02  0.203870E-06 -0.627728E-08
  0.373171E+01  0.559756E+02  0.113964E-06 -0.202267E-07
  0.373171E+01  0.584634E+02  0.827190E-07 -0.251468E-07
  0.373171E+01  0.609512E+02  0.176911E-06 -0.472297E-07
  0.373171E+01  0.634390E+02  0.129258E-06 -0.226306E-07
  0.373171E+01  0.659268E+02  0.131720E-06  0.748974E-08
  0.373171E+01  0.684146E+02  0.211438E-06  0.339881E-07
  0.373171E+01  0.709024E+02  0.134510E-06  0.120888E-08
  0.373171E+01  0.733902E+02  0.950416E-07 -0.340697E-08
  0.373171E+01  0.758780E+02  0.118478E-06  0.751177E-08
  0.373171E+01  0.783659E+02  0.238306E-06  0.127739E-07
  0.373171E+01  0.808537E+02  0.117348E-06  0.164508E-07
  0.373171E+01  0.833415E+02  0.940685E-07  0.242701E-07
  0.373171E+01  0.858293E+02  0.143332E-06  0.636728E-08
  0.373171E+01  0.883171E+02  0.108400E-06 -0.493113E-09
  0.373171E+01  0.908049E+02  0.373285E-06 -0.140463E-07
  0.373171E+01  0.932927E+02  0.201820E-06 -0.209300E-07
  0.373171E+01  0.957805E+02  0.125046E-06 -0.396021E-08
  0.373171E+01  0.982683E+02  0.947807E-07  0.418359E-08
  0.373171E+01  0.100756E+03  0.104952E-06  0.866960E-09
  0.621951E+01  0.124390E+01  0.163739E-06  0.775393E-09
  0.621951E+01  0.373171E+01  0.166319E-06 -0.160051E-07
  0.621951E+01  0.621951E+01  0.272170E-06 -0.902455E-07
  0.621951E+01  0.870732E+01  0.223733E-06 -0.673256E-07
  0.621951E+01  0.111951E+02  0.483120E-06 -0.114551E-06
  0.621951E+01  0.136829E+02  0.294931E-06 -0.999703E-07
  0.621951E+01  0.161707E+02  0.341961E-06 -0.125213E-06
  0.621951E+01  0.186585E+02  0.381497E-06 -0.451509E-07
  0.621951E+01  0.211463E+02  0.653414E-06  0.897739E-07
  0.621951E+01  0.236341E+02  0.406711E-06  0.606072E-07
  0.621951E+01  0.261220E+02  0.168524E-06  0.312179E-07
  0.621951E+01  0.286098E+02  0.412353E-06  0.739768E-07
  0.621951E+01  0.310976E+02  0.264461E-06  0.760071E-07
  0.621951E+01  0.335854E+02  0.820624E-06  0.158525E-06
  0.621951E+01  0.360732E+02  0.467008E-06  0.839990E-07
  0.621951E+01  0.385610E+02  0.647776E-06  0.580327E-07
  0.621951E+01  0.410488E+02  0.893953E-06  0.138370E-06
  0.621951E+01  0.435366E+02  0.793448E-06  0.216999E-06
  0.621951E+01  0.460244E+02  0.711302E-06  0.143254E-06
  0.621951E+01  0.485122E+02  0.149739E-06  0.126972E-07
  0.621951E+01  0.510000E+02  0.235574E-06  0.197130E-07
  0.621951E+01  0.534878E+02  0.239978E-06 -0.761966E-08
  0.621951E+01  0.559756E+02  0.118989E-06 -0.255910E-07
  0.621951E+01  0.584634E+02  0.105527E-06 -0.426686E-07
  0.621951E+01  0.609512E+02  0.102486E-06 -0.434804E-07
  0.621951E+01  0.634390E+02  0.103485E-06 -0.392648E-07
  0.621951E+01  0.659268E+02  0.156895E-06 -0.164592E-07
  0.621951E+01  0.684146E+02  0.333485E-06  0.144346E-07
  0.621951E+01  0.709024E+02  0.383041E-06  0.603739E-07
  0.621951E+01  0.733902E+02  0.144918E-06  0.236376E-07
  0.621951E+01  0.758780E+02  0.172178E-06 -0.217435E-08
  0.621951E+01  0.783659E+02  0.308528E-06 -0.467999E-09
  0.621951E+01  0.808537E+02  0.127594E-06  0.292157E-07
  0.621951E+01  0.833415E+02  0.104398E-06  0.348171E-07
  0.621951E+01  0.858293E+02  0.235077E-06  0.532004E-07
  0.621951E+01  0.883171E+02  0.197574E-06  0.252675E-07
  0.621951E+01  0.908049E+02  0.379637E-06 -0.587752E-08
  0.621951E+01  0.932927E+02  0.153297E-06  0.688484E-09
  0.621951E+01  0.957805E+02  0.144617E-06 -0.295065E-08
  0.621951E+01  0.982683E+02  0.162849E-06 -0.126645E-07
  0.621951E+01  0.100756E+03  0.142239E-06 -0.326098E-08
  0.870732E+01  0.124390E+01  0.151645E-06 -0.590882E-08
  0.870732E+01  0.373171E+01  0.213538E-06 -0.484986E-07
  0.870732E+01  0.621951E+01  0.292529E-06 -0.865657E-07
  0.870732E+01  0.870732E+01  0.279638E-06 -0.849027E-07
  0.870732E+01  0.111951E+02  0.748182E-06 -0.193046E-06
  0.870732E+01  0.136829E+02  0.477730E-06 -0.197943E-06
  0.870732E+01  0.161707E+02  0.263418E-06 -0.115646E-06
  0.870732E+01  0.186585E+02  0.361819E-06 -0.282075E-07
  0.870732E+01  0.211463E+02  0.303419E-06  0.309354E-07
  0.870732E+01  0.236341E+02  0.727866E-06  0.180331E-06
  0.870732E+01  0.261220E+02  0.207772E-06  0.526802E-07
  0.870732E+01  0.286098E+02  0.415686E-06  0.622168E-07
  0.870732E+01  0.310976E+02  0.249854E-06  0.107204E-06
  0.870732E+01  0.335854E+02  0.868451E-06  0.248869E-06
  0.870732E+01  0.360732E+02  0.793302E-06  0.230850E-06
  0.870732E+01  0.385610E+02  0.101470E-05  0.111991E-06
  0.870732E+01  0.410488E+02  0.629019E-06  0.956108E-07
  0.870732E+01  0.435366E+02  0.825865E-06  0.118888E-06
  0.870732E+01  0.460244E+02  0.633145E-06  0.124239E-06
  0.870732E+01  0.485122E+02  0.231639E-06  0.638485E-07
  0.870732E+01  0.510000E+02  0.169309E-06 -0.864428E-09
  0.870732E+01  0.534878E+02  0.355295E-06 -0.177416E-07
  0.870732E+01  0.559756E+02  0.156276E-06 -0.285424E-07
  0.870732E+01  0.584634E+02  0.709231E-07 -0.220311E-07
  0.870732E+01  0.609512E+02  0.103119E-06 -0.459688E-07
  0.870732E+01  0.634390E+02  0.716444E-07 -0.530129E-07
  0.870732E+01  0.659268E+02  0.176706E-06 -0.702395E-07
  0.870732E+01  0.684146E+02  0.359060E-06  0.312220E-07
  0.870732E+01  0.709024E+02  0.309964E-06  0.841407E-07
  0.870732E+01  0.733902E+02  0.386280E-06  0.824448E-07
  0.870732E+01  0.758780E+02  0.370253E-06 -0.115413E-07
  0.870732E+01  0.783659E+02  0.318681E-06 -0.386779E-08
  0.870732E+01  0.808537E+02  0.112877E-06  0.128559E-07
  0.870732E+01  0.833415E+02  0.206307E-06  0.255583E-07
  0.870732E+01  0.858293E+02  0.262687E-06  0.853738E-07
  0.870732E+01  0.883171E+02  0.255627E-06  0.735959E-07
  0.870732E+01  0.908049E+02  0.431664E-06  0.625043E-07
  0.870732E+01  0.932927E+02  0.226221E-06  0.506648E-07
  0.870732E+01  0.957805E+02  0.211884E-06  0.571603E-08
  0.870732E+01  0.982683E+02  0.187967E-06 -0.132289E-07
  0.870732E+01  0.100756E+03  0.175133E-06 -0.208813E-08
  0.111951E+02  0.124390E+01  0.255860E-06 -0.175307E-07
  0.111951E+02  0.373171E+01  0.214645E-06 -0.244168E-07
  0.111951E+02  0.621951E+01  0.227220E-06 -0.373689E-07
  0.111951E+02  0.870732E+01  0.410723E-06 -0.108283E-06
  0.111951E+02  0.111951E+02  0.716402E-06 -0.167511E-06
  0.111951E+02  0.136829E+02  0.438040E-06 -0.170826E-06
  0.111951E+02  0.161707E+02  0.116506E-06 -0.337929E-07
  0.111951E+02  0.186585E+02  0.316534E-06 -0.583807E-08
  0.111951E+02  0.211463E+02  0.366054E-06  0.219571E-07
  0.111951E+02  0.236341E+02  0.507443E-06  0.666563E-07
  0.111951E+02  0.261220E+02  0.459460E-06  0.133891E-06
  0.111951E+02  0.286098E+02  0.285029E-06  0.646138E-07
  0.111951E+02  0.310976E+02  0.306749E-06  0.870242E-07
  0.111951E+02  0.335854E+02  0.822300E-06  0.114518E-06
  0.111951E+02  0.360732E+02  0.923598E-06  0.121892E-06
  0.111951E+02  0.385610E+02  0.807856E-06  0.142146E-06
  0.111951E+02  0.410488E+02  0.699683E-06  0.930238E-07
  0.111951E+02  0.435366E+02  0.877706E-06  0.477607E-07
  0.111951E+02  0.460244E+02  0.319837E-06  0.647872E-07
  0.111951E+02  0.485122E+02  0.384379E-06  0.555928E-07
  0.111951E+02  0.510000E+02  0.203623E-06  0.132279E-08
  0.111951E+02  0.534878E+02  0.187041E-06 -0.166817E-08
  0.111951E+02  0.559756E+02  0.178018E-06 -0.132461E-07
  0.111951E+02  0.584634E+02  0.122483E-06 -0.326542E-07
  0.111951E+02  0.609512E+02  0.928090E-07 -0.299203E-07
  0.111951E+02  0.634390E+02  0.994923E-07 -0.469615E-07
  0.111951E+02  0.659268E+02  0.105163E-06 -0.322762E-07
  0.111951E+02  0.684146E+02  0.157321E-06 -0.708122E-08
  0.111951E+02  0.709024E+02  0.395862E-06  0.950770E-07
  0.111951E+02  0.733902E+02  0.556391E-06  0.738096E-07
  0.111951E+02  0.758780E+02  0.443423E-06  0.535859E-08
  0.111951E+02  0.783659E+02  0.231086E-06  0.935484E-08
  0.111951E+02  0.808537E+02  0.287950E-06  0.116647E-07
  0.111951E+02  0.833415E+02  0.101724E-06  0.103747E-07
  0.111951E+02  0.858293E+02  0.143009E-06  0.220697E-07
  0.111951E+02  0.883171E+02  0.129740E-06  0.133709E-07
  0.111951E+02  0.908049E+02  0.280121E-06  0.166208E-07
  0.111951E+02  0.932927E+02  0.178809E-06  0.209016E-07
  0.111951E+02  0.957805E+02  0.340758E-06  0.376656E-07
  0.111951E+02  0.982683E+02  0.236609E-06  0.186366E-07
  0.111951E+02  0.100756E+03  0.406797E-06  0.209736E-08
  0.136829E+02  0.124390E+01  0.419357E-06 -0.431752E-08
  0.136829E+02  0.373171E+01  0.462334E-06 -0.827137E-08
  0.136829E+02  0.621951E+01  0.604447E-06 -0.593884E-07
  0.136829E+02  0.870732E+01  0.683999E-06 -0.220538E-06
  0.136829E+02  0.111951E+02  0.906058E-06 -0.303778E-06
  0.136829E+02  0.136829E+02  0.197423E-06 -0.581597E-07
  0.136829E+02  0.161707E+02  0.118507E-06 -0.281485E-07
  0.136829E+02  0.186585E+02  0.269451E-06 -0.129813E-07
  0.136829E+02  0.211463E+02  0.302094E-06  0.124192E-07
  0.136829E+02  0.236341E+02  0.397485E-06  0.558717E-07
  0.136829E+02  0.261220E+02  0.229190E-06  0.562837E-07
  0.136829E+02  0.286098E+02  0.308904E-06  0.682175E-07
  0.136829E+02  0.310976E+02  0.203413E-06  0.446246E-07
  0.136829E+02  0.335854E+02  0.420567E-06  0.278202E-07
  0.136829E+02  0.360732E+02  0.445147E-06  0.222442E-07
  0.136829E+02  0.385610E+02  0.502771E-06  0.358414E-07
  0.136829E+02  0.410488E+02  0.794626E-06  0.115008E-07
  0.136829E+02  0.435366E+02  0.506683E-06 -0.267387E-09
  0.136829E+02  0.460244E+02  0.438080E-06  0.294584E-07
  0.136829E+02  0.485122E+02  0.442208E-06  0.188357E-07
  0.136829E+02  0.510000E+02  0.221446E-06  0.107896E-07
  0.136829E+02  0.534878E+02  0.298144E-06  0.480437E-08
  0.136829E+02  0.559756E+02  0.244894E-06  0.391666E-08
  0.136829E+02  0.584634E+02  0.801984E-07 -0.552784E-08
  0.136829E+02  0.609512E+02  0.937483E-07 -0.157836E-07
  0.136829E+02  0.634390E+02  0.113615E-06 -0.229490E-07
  0.136829E+02  0.659268E+02  0.127075E-06 -0.313319E-07
  0.136829E+02  0.684146E+02  0.938600E-07 -0.219078E-07
  0.136829E+02  0.709024E+02  0.285428E-06 -0.349208E-07
  0.136829E+02  0.733902E+02  0.577398E-06  0.229354E-07
  0.136829E+02  0.758780E+02  0.398692E-06  0.813027E-07
  0.136829E+02  0.783659E+02  0.166595E-06  0.415289E-07
  0.136829E+02  0.808537E+02  0.175911E-06  0.229302E-07
  0.136829E+02  0.833415E+02  0.107834E-06  0.821669E-08
  0.136829E+02  0.858293E+02  0.793073E-07 -0.906335E-09
  0.136829E+02  0.883171E+02  0.157882E-06 -0.231791E-08
  0.136829E+02  0.908049E+02  0.281814E-06  0.910854E-08
  0.136829E+02  0.932927E+02  0.186623E-06  0.896763E-08
  0.136829E+02  0.957805E+02  0.166240E-06  0.679042E-08
  0.136829E+02  0.982683E+02  0.261581E-06  0.173519E-07
  0.136829E+02  0.100756E+03  0.427169E-06  0.317704E-08
  0.161707E+02  0.124390E+01  0.691110E-06 -0.327252E-08
  0.161707E+02  0.373171E+01  0.105371E-05 -0.630391E-07
  0.161707E+02  0.621951E+01  0.863778E-06 -0.979254E-07
  0.161707E+02  0.870732E+01  0.113187E-05 -0.200908E-06
  0.161707E+02  0.111951E+02  0.453567E-06 -0.660028E-07
  0.161707E+02  0.136829E+02  0.214468E-06 -0.158323E-07
  0.161707E+02  0.161707E+02  0.127804E-06 -0.262741E-07
  0.161707E+02  0.186585E+02  0.185574E-06 -0.220189E-07
  0.161707E+02  0.211463E+02  0.210951E-06 -0.592330E-08
  0.161707E+02  0.236341E+02  0.160024E-06  0.195705E-07
  0.161707E+02  0.261220E+02  0.268689E-06  0.584794E-07
  0.161707E+02  0.286098E+02  0.273147E-06  0.571339E-07
  0.161707E+02  0.310976E+02  0.184352E-06  0.306306E-07
  0.161707E+02  0.335854E+02  0.439246E-06  0.393636E-07
  0.161707E+02  0.360732E+02  0.542428E-06  0.547653E-07
  0.161707E+02  0.385610E+02  0.557543E-06 -0.752900E-09
  0.161707E+02  0.410488E+02  0.675054E-06 -0.212308E-07
  0.161707E+02  0.435366E+02  0.435215E-06 -0.251796E-07
  0.161707E+02  0.460244E+02  0.393374E-06 -0.420114E-07
  0.161707E+02  0.485122E+02  0.326455E-06 -0.315082E-08
  0.161707E+02  0.510000E+02  0.212840E-06  0.714969E-08
  0.161707E+02  0.534878E+02  0.374792E-06  0.140459E-07
  0.161707E+02  0.559756E+02  0.330893E-06  0.423524E-07
  0.161707E+02  0.584634E+02  0.148661E-06  0.232889E-07
  0.161707E+02  0.609512E+02  0.832856E-07 -0.155781E-08
  0.161707E+02  0.634390E+02  0.843211E-07 -0.595457E-08
  0.161707E+02  0.659268E+02  0.881136E-07 -0.670760E-08
  0.161707E+02  0.684146E+02  0.914543E-07 -0.310564E-07
  0.161707E+02  0.709024E+02  0.325916E-06 -0.843970E-07
  0.161707E+02  0.733902E+02  0.292410E-06  0.423604E-08
  0.161707E+02  0.758780E+02  0.440065E-06  0.840604E-07
  0.161707E+02  0.783659E+02  0.134758E-06  0.488459E-07
  0.161707E+02  0.808537E+02  0.172006E-06  0.445168E-07
  0.161707E+02  0.833415E+02  0.110083E-06  0.966740E-09
  0.161707E+02  0.858293E+02  0.173296E-06 -0.316701E-07
  0.161707E+02  0.883171E+02  0.315539E-06 -0.981308E-08
  0.161707E+02  0.908049E+02  0.309552E-06  0.178088E-07
  0.161707E+02  0.932927E+02  0.231178E-06  0.292384E-07
  0.161707E+02  0.957805E+02  0.108739E-06  0.106970E-07
  0.161707E+02  0.982683E+02  0.198002E-06  0.697864E-08
  0.161707E+02  0.100756E+03  0.317947E-06  0.548903E-08
  0.186585E+02  0.124390E+01  0.108467E-05 -0.318152E-07
  0.186585E+02  0.373171E+01  0.880257E-06 -0.359076E-07
  0.186585E+02  0.621951E+01  0.793654E-06 -0.152728E-07
  0.186585E+02  0.870732E+01  0.945767E-06  0.237058E-08
  0.186585E+02  0.111951E+02  0.310782E-06  0.709662E-08
  0.186585E+02  0.136829E+02  0.156861E-06  0.187294E-08
  0.186585E+02  0.161707E+02  0.117284E-06 -0.203034E-07
  0.186585E+02  0.186585E+02  0.200365E-06 -0.385100E-07
  0.186585E+02  0.211463E+02  0.172196E-06 -0.205804E-07
  0.186585E+02  0.236341E+02  0.957920E-07 -0.647927E-08
  0.186585E+02  0.261220E+02  0.149171E-06  0.116129E-07
  0.186585E+02  0.286098E+02  0.102240E-06  0.198112E-07
  0.186585E+02  0.310976E+02  0.215294E-06  0.323270E-07
  0.186585E+02  0.335854E+02  0.393492E-06  0.462537E-07
  0.186585E+02  0.360732E+02  0.505686E-06  0.452035E-07
  0.186585E+02  0.385610E+02  0.505722E-06 -0.406990E-07
  0.186585E+02  0.410488E+02  0.395128E-06 -0.591066E-07
  0.186585E+02  0.435366E+02  0.475381E-06 -0.323970E-07
  0.186585E+02  0.460244E+02  0.286265E-06 -0.100263E-07
  0.186585E+02  0.485122E+02  0.278815E-06 -0.216895E-07
  0.186585E+02  0.510000E+02  0.258184E-06  0.931616E-08
  0.186585E+02  0.534878E+02  0.358485E-06  0.553730E-07
  0.186585E+02  0.559756E+02  0.435513E-06  0.647563E-07
  0.186585E+02  0.584634E+02  0.296640E-06  0.530965E-07
  0.186585E+02  0.609512E+02  0.708735E-07  0.142773E-07
  0.186585E+02  0.634390E+02  0.831325E-07  0.312938E-08
  0.186585E+02  0.659268E+02  0.645162E-07 -0.656857E-08
  0.186585E+02  0.684146E+02  0.126198E-06 -0.206497E-07
  0.186585E+02  0.709024E+02  0.177238E-06 -0.115963E-07
  0.186585E+02  0.733902E+02  0.118855E-06 -0.654917E-08
  0.186585E+02  0.758780E+02  0.348792E-06  0.813369E-08
  0.186585E+02  0.783659E+02  0.216500E-06  0.410588E-07
  0.186585E+02  0.808537E+02  0.269152E-06  0.250357E-07
  0.186585E+02  0.833415E+02  0.539440E-06 -0.212163E-07
  0.186585E+02  0.858293E+02  0.198804E-06 -0.404155E-07
  0.186585E+02  0.883171E+02  0.496710E-06 -0.524639E-07
  0.186585E+02  0.908049E+02  0.358802E-06  0.290125E-07
  0.186585E+02  0.932927E+02  0.186018E-06  0.535108E-07
  0.186585E+02  0.957805E+02  0.137545E-06  0.379627E-07
  0.186585E+02  0.982683E+02  0.133011E-06  0.160621E-07
  0.186585E+02  0.100756E+03  0.250105E-06  0.422068E-08
  0.211463E+02  0.124390E+01  0.368396E-06  0.131866E-08
  0.211463E+02  0.373171E+01  0.891529E-06  0.351512E-07
  0.211463E+02  0.621951E+01  0.841758E-06  0.754022E-07
  0.211463E+02  0.870732E+01  0.994585E-06  0.962297E-07
  0.211463E+02  0.111951E+02  0.516693E-06  0.646441E-07
  0.211463E+02  0.136829E+02  0.283223E-06  0.112615E-07
  0.211463E+02  0.161707E+02  0.131062E-06 -0.105666E-07
  0.211463E+02  0.186585E+02  0.191909E-06 -0.337759E-07
  0.211463E+02  0.211463E+02  0.154070E-06 -0.542601E-07
  0.211463E+02  0.236341E+02  0.114497E-06 -0.264234E-07
  0.211463E+02  0.261220E+02  0.105395E-06  0.173789E-08
  0.211463E+02  0.286098E+02  0.104708E-06  0.100262E-07
  0.211463E+02  0.310976E+02  0.134984E-06  0.115039E-07
  0.211463E+02  0.335854E+02  0.441365E-06  0.125552E-07
  0.211463E+02  0.360732E+02  0.677444E-06 -0.157358E-07
  0.211463E+02  0.385610E+02  0.310293E-06 -0.108811E-08
  0.211463E+02  0.410488E+02  0.205724E-06 -0.258161E-08
  0.211463E+02  0.435366E+02  0.235609E-06  0.168131E-07
  0.211463E+02  0.460244E+02  0.251486E-06  0.319796E-07
  0.211463E+02  0.485122E+02  0.262686E-06  0.109259E-07
  0.211463E+02  0.510000E+02  0.127741E-06 -0.476831E-08
  0.211463E+02  0.534878E+02  0.333758E-06  0.508950E-07
  0.211463E+02  0.559756E+02  0.516103E-06  0.132285E-06
  0.211463E+02  0.584634E+02  0.242884E-06  0.695502E-07
  0.211463E+02  0.609512E+02  0.186539E-06  0.815053E-07
  0.211463E+02  0.634390E+02  0.159148E-06  0.303982E-07
  0.211463E+02  0.659268E+02  0.824315E-07 -0.599503E-08
  0.211463E+02  0.684146E+02  0.927514E-07 -0.800579E-08
  0.211463E+02  0.709024E+02  0.215032E-06 -0.101126E-07
  0.211463E+02  0.733902E+02  0.218461E-06 -0.265768E-07
  0.211463E+02  0.758780E+02  0.316188E-06 -0.198974E-07
  0.211463E+02  0.783659E+02  0.207140E-06 -0.628172E-08
  0.211463E+02  0.808537E+02  0.604877E-06 -0.439886E-07
  0.211463E+02  0.833415E+02  0.552920E-06 -0.204657E-07
  0.211463E+02  0.858293E+02  0.401844E-06 -0.320754E-07
  0.211463E+02  0.883171E+02  0.441409E-06 -0.369951E-07
  0.211463E+02  0.908049E+02  0.315178E-06  0.199748E-07
  0.211463E+02  0.932927E+02  0.231280E-06  0.515170E-07
  0.211463E+02  0.957805E+02  0.114184E-06  0.251546E-07
  0.211463E+02  0.982683E+02  0.166467E-06  0.137905E-07
  0.211463E+02  0.100756E+03  0.278645E-06 -0.546985E-10
  0.236341E+02  0.124390E+01  0.585491E-06  0.565974E-07
  0.236341E+02  0.373171E+01  0.548882E-06  0.109007E-06
  0.236341E+02  0.621951E+01  0.837495E-06  0.103722E-06
  0.236341E+02  0.870732E+01  0.127664E-05  0.107244E-06
  0.236341E+02  0.111951E+02  0.729629E-06  0.844548E-07
  0.236341E+02  0.136829E+02  0.340466E-06  0.140849E-07
  0.236341E+02  0.161707E+02  0.891537E-07 -0.839145E-08
  0.236341E+02  0.186585E+02  0.236769E-06 -0.502914E-07
  0.236341E+02  0.211463E+02  0.130926E-06 -0.563555E-07
  0.236341E+02  0.236341E+02  0.759418E-07 -0.171245E-07
  0.236341E+02  0.261220E+02  0.756012E-07 -0.139661E-07
  0.236341E+02  0.286098E+02  0.963192E-07 -0.111509E-07
  0.236341E+02  0.310976E+02  0.212408E-06 -0.339620E-07
  0.236341E+02  0.335854E+02  0.668506E-06 -0.189585E-06
  0.236341E+02  0.360732E+02  0.367249E-06 -0.324828E-07
  0.236341E+02  0.385610E+02  0.265488E-06  0.499214E-07
  0.236341E+02  0.410488E+02  0.141857E-06  0.598163E-07
  0.236341E+02  0.435366E+02  0.212421E-06  0.766789E-07
  0.236341E+02  0.460244E+02  0.209444E-06  0.802808E-07
  0.236341E+02  0.485122E+02  0.329414E-06  0.863897E-07
  0.236341E+02  0.510000E+02  0.939062E-07  0.623677E-08
  0.236341E+02  0.534878E+02  0.133136E-06  0.924877E-09
  0.236341E+02  0.559756E+02  0.264233E-06  0.355966E-07
  0.236341E+02  0.584634E+02  0.282193E-06  0.747851E-07
  0.236341E+02  0.609512E+02  0.116396E-06  0.486683E-07
  0.236341E+02  0.634390E+02  0.395205E-06  0.967782E-07
  0.236341E+02  0.659268E+02  0.217568E-06  0.104516E-07
  0.236341E+02  0.684146E+02  0.120386E-06 -0.123008E-07
  0.236341E+02  0.709024E+02  0.208912E-06 -0.158582E-07
  0.236341E+02  0.733902E+02  0.181422E-06 -0.937396E-08
  0.236341E+02  0.758780E+02  0.211576E-06 -0.880469E-08
  0.236341E+02  0.783659E+02  0.202324E-06 -0.307219E-07
  0.236341E+02  0.808537E+02  0.490363E-06 -0.302067E-07
  0.236341E+02  0.833415E+02  0.594426E-06  0.104084E-07
  0.236341E+02  0.858293E+02  0.304634E-06 -0.674282E-08
  0.236341E+02  0.883171E+02  0.233655E-06 -0.149804E-07
  0.236341E+02  0.908049E+02  0.176585E-06  0.123964E-07
  0.236341E+02  0.932927E+02  0.126554E-06  0.177532E-07
  0.236341E+02  0.957805E+02  0.126229E-06  0.122250E-07
  0.236341E+02  0.982683E+02  0.160113E-06  0.350112E-09
  0.236341E+02  0.100756E+03  0.194794E-06  0.301710E-09
  0.261220E+02  0.124390E+01  0.324583E-06  0.226366E-07
  0.261220E+02  0.373171E+01  0.414647E-06  0.781948E-07
  0.261220E+02  0.621951E+01  0.128191E-05  0.169257E-06
  0.261220E+02  0.870732E+01  0.132307E-05  0.129875E-06
  0.261220E+02  0.111951E+02  0.960144E-06  0.100784E-06
  0.261220E+02  0.136829E+02  0.312877E-06  0.219846E-07
  0.261220E+02  0.161707E+02  0.118324E-06 -0.182373E-07
  0.261220E+02  0.186585E+02  0.233995E-06 -0.533630E-07
  0.261220E+02  0.211463E+02  0.627347E-07 -0.138767E-07
  0.261220E+02  0.236341E+02  0.748162E-07 -0.222952E-07
  0.261220E+02  0.261220E+02  0.968651E-07 -0.536143E-07
  0.261220E+02  0.286098E+02  0.233991E-06 -0.183635E-06
  0.261220E+02  0.310976E+02  0.419315E-06 -0.280892E-06
  0.261220E+02  0.335854E+02  0.320547E-06 -0.940288E-07
  0.261220E+02  0.360732E+02  0.243359E-06  0.173515E-07
  0.261220E+02  0.385610E+02  0.196533E-06  0.584696E-07
  0.261220E+02  0.410488E+02  0.126818E-06  0.624510E-07
  0.261220E+02  0.435366E+02  0.142392E-06  0.729239E-07
  0.261220E+02  0.460244E+02  0.187170E-06  0.118057E-06
  0.261220E+02  0.485122E+02  0.280041E-06  0.109240E-06
  0.261220E+02  0.510000E+02  0.212849E-06  0.733443E-07
  0.261220E+02  0.534878E+02  0.137072E-06  0.189725E-07
  0.261220E+02  0.559756E+02  0.132226E-06  0.196896E-07
  0.261220E+02  0.584634E+02  0.265599E-06  0.486565E-07
  0.261220E+02  0.609512E+02  0.302420E-06  0.507933E-07
  0.261220E+02  0.634390E+02  0.510062E-06  0.646963E-07
  0.261220E+02  0.659268E+02  0.289669E-06  0.714696E-07
  0.261220E+02  0.684146E+02  0.111244E-06  0.130812E-07
  0.261220E+02  0.709024E+02  0.137380E-06  0.140637E-07
  0.261220E+02  0.733902E+02  0.187828E-06  0.251134E-08
  0.261220E+02  0.758780E+02  0.197393E-06 -0.150139E-08
  0.261220E+02  0.783659E+02  0.187331E-06 -0.126361E-07
  0.261220E+02  0.808537E+02  0.269390E-06 -0.299498E-07
  0.261220E+02  0.833415E+02  0.173797E-06 -0.360619E-08
  0.261220E+02  0.858293E+02  0.184552E-06 -0.169882E-08
  0.261220E+02  0.883171E+02  0.946298E-07 -0.650282E-08
  0.261220E+02  0.908049E+02  0.107471E-06 -0.773273E-09
  0.261220E+02  0.932927E+02  0.134320E-06  0.948616E-08
  0.261220E+02  0.957805E+02  0.791790E-07  0.274737E-08
  0.261220E+02  0.982683E+02  0.964064E-07 -0.188449E-08
  0.261220E+02  0.100756E+03  0.192861E-06 -0.806048E-08
  0.286098E+02  0.124390E+01  0.227344E-06  0.195015E-07
  0.286098E+02  0.373171E+01  0.507074E-06  0.270584E-07
  0.286098E+02  0.621951E+01  0.139183E-05  0.662226E-07
  0.286098E+02  0.870732E+01  0.921893E-06  0.201158E-07
  0.286098E+02  0.111951E+02  0.122817E-05 -0.650322E-07
  0.286098E+02  0.136829E+02  0.357566E-06 -0.144889E-08
  0.286098E+02  0.161707E+02  0.146045E-06  0.596484E-08
  0.286098E+02  0.186585E+02  0.794587E-07  0.346501E-09
  0.286098E+02  0.211463E+02  0.520680E-07 -0.550092E-08
  0.286098E+02  0.236341E+02  0.641653E-07 -0.262298E-07
  0.286098E+02  0.261220E+02  0.115602E-06 -0.804000E-07
  0.286098E+02  0.286098E+02  0.339636E-06 -0.185064E-06
  0.286098E+02  0.310976E+02  0.181772E-06 -0.416891E-07
  0.286098E+02  0.335854E+02  0.131445E-06  0.320812E-08
  0.286098E+02  0.360732E+02  0.961299E-07  0.845900E-08
  0.286098E+02  0.385610E+02  0.133373E-06  0.201698E-07
  0.286098E+02  0.410488E+02  0.188576E-06  0.635595E-07
  0.286098E+02  0.435366E+02  0.138630E-06  0.496156E-07
  0.286098E+02  0.460244E+02  0.181327E-06  0.651270E-07
  0.286098E+02  0.485122E+02  0.343503E-06  0.968718E-07
  0.286098E+02  0.510000E+02  0.198677E-06  0.654742E-07
  0.286098E+02  0.534878E+02  0.151270E-06  0.512819E-07
  0.286098E+02  0.559756E+02  0.128097E-06  0.319394E-07
  0.286098E+02  0.584634E+02  0.286025E-06  0.154621E-07
  0.286098E+02  0.609512E+02  0.309044E-06 -0.967734E-08
  0.286098E+02  0.634390E+02  0.236299E-06  0.260806E-07
  0.286098E+02  0.659268E+02  0.428203E-06  0.114471E-06
  0.286098E+02  0.684146E+02  0.217311E-06  0.524757E-07
  0.286098E+02  0.709024E+02  0.164045E-06  0.394275E-07
  0.286098E+02  0.733902E+02  0.394323E-06  0.402675E-07
  0.286098E+02  0.758780E+02  0.153806E-06 -0.655833E-09
  0.286098E+02  0.783659E+02  0.279326E-06 -0.305502E-07
  0.286098E+02  0.808537E+02  0.160115E-06 -0.425378E-07
  0.286098E+02  0.833415E+02  0.134995E-06 -0.335550E-07
  0.286098E+02  0.858293E+02  0.939230E-07 -0.252319E-08
  0.286098E+02  0.883171E+02  0.812065E-07  0.999570E-09
  0.286098E+02  0.908049E+02  0.386288E-07 -0.289905E-08
  0.286098E+02  0.932927E+02  0.841164E-07  0.491827E-09
  0.286098E+02  0.957805E+02  0.837758E-07  0.175426E-10
  0.286098E+02  0.982683E+02  0.107458E-06 -0.102259E-07
  0.286098E+02  0.100756E+03  0.156513E-06 -0.847591E-08
  0.310976E+02  0.124390E+01  0.252095E-06 -0.101874E-07
  0.310976E+02  0.373171E+01  0.543433E-06  0.119638E-07
  0.310976E+02  0.621951E+01  0.827757E-06  0.635742E-07
  0.310976E+02  0.870732E+01  0.109265E-05 -0.216349E-07
  0.310976E+02  0.111951E+02  0.557469E-06 -0.295133E-07
  0.310976E+02  0.136829E+02  0.164566E-06  0.381809E-09
  0.310976E+02  0.161707E+02  0.118125E-06  0.444999E-08
  0.310976E+02  0.186585E+02  0.744412E-07  0.746101E-08
  0.310976E+02  0.211463E+02  0.906656E-07 -0.371198E-08
  0.310976E+02  0.236341E+02  0.484871E-07 -0.132186E-07
  0.310976E+02  0.261220E+02  0.151005E-06 -0.510676E-07
  0.310976E+02  0.286098E+02  0.867244E-07 -0.216476E-07
  0.310976E+02  0.310976E+02  0.583726E-07 -0.947645E-08
  0.310976E+02  0.335854E+02  0.848844E-07 -0.217132E-08
  0.310976E+02  0.360732E+02  0.966769E-07  0.836375E-08
  0.310976E+02  0.385610E+02  0.582982E-07  0.997701E-08
  0.310976E+02  0.410488E+02  0.854446E-07  0.197814E-07
  0.310976E+02  0.435366E+02  0.154369E-06  0.402895E-07
  0.310976E+02  0.460244E+02  0.191106E-06  0.410865E-07
  0.310976E+02  0.485122E+02  0.284999E-06  0.821234E-07
  0.310976E+02  0.510000E+02  0.234553E-06  0.829561E-07
  0.310976E+02  0.534878E+02  0.219572E-06  0.720071E-07
  0.310976E+02  0.559756E+02  0.100254E-06  0.999024E-08
  0.310976E+02  0.584634E+02  0.208601E-06 -0.963217E-08
  0.310976E+02  0.609512E+02  0.113970E-06  0.120512E-07
  0.310976E+02  0.634390E+02  0.147638E-06  0.181342E-07
  0.310976E+02  0.659268E+02  0.245936E-06  0.290283E-07
  0.310976E+02  0.684146E+02  0.265856E-06  0.451413E-07
  0.310976E+02  0.709024E+02  0.116865E-06  0.204827E-07
  0.310976E+02  0.733902E+02  0.287039E-06  0.331370E-07
  0.310976E+02  0.758780E+02  0.352871E-06 -0.232097E-07
  0.310976E+02  0.783659E+02  0.264109E-06 -0.919752E-07