 title="xy fracture velocity field tdays=  14550.000"
variables="x","y","vx","vy"
zone i=          0
