variables="x","h","c"
zone i=     42,T= "1dxhc;t= 0.1500E+03y,z:   1   1"
    0.00000E+00    0.50000E+00    0.00000E+00
    0.24878E+01    0.49749E+00    0.74783E-21
    0.49756E+01    0.49497E+00    0.35339E-20
    0.74634E+01    0.49195E+00    0.36015E-20
    0.99512E+01    0.48850E+00    0.71608E-20
    0.12439E+02    0.48374E+00    0.23935E-19
    0.14927E+02    0.47956E+00    0.67219E-20
    0.17415E+02    0.47476E+00    0.51118E-19
    0.19902E+02    0.47051E+00    0.82413E-19
    0.22390E+02    0.46325E+00    0.29184E-18
    0.24878E+02    0.45245E+00    0.22908E-17
    0.27366E+02    0.44274E+00    0.19711E-16
    0.29854E+02    0.43462E+00    0.15548E-15
    0.32341E+02    0.42874E+00    0.13261E-14
    0.34829E+02    0.42358E+00    0.12504E-13
    0.37317E+02    0.42160E+00    0.62343E-13
    0.39805E+02    0.41859E+00    0.17979E-12
    0.42293E+02    0.41543E+00    0.40040E-12
    0.44780E+02    0.41082E+00    0.96614E-12
    0.47268E+02    0.39978E+00    0.45588E-11
    0.49756E+02    0.39173E+00    0.14608E-10
    0.52244E+02    0.38613E+00    0.64476E-10
    0.54732E+02    0.38126E+00    0.29376E-09
    0.57220E+02    0.37748E+00    0.16300E-08
    0.59707E+02    0.37262E+00    0.76623E-08
    0.62195E+02    0.36589E+00    0.39162E-07
    0.64683E+02    0.36026E+00    0.17518E-06
    0.67171E+02    0.35414E+00    0.98468E-06
    0.69659E+02    0.34783E+00    0.40643E-05
    0.72146E+02    0.34308E+00    0.16571E-04
    0.74634E+02    0.33726E+00    0.74438E-04
    0.77122E+02    0.33046E+00    0.43037E-03
    0.79610E+02    0.32628E+00    0.18155E-02
    0.82098E+02    0.32663E+00    0.12301E-02
    0.84585E+02    0.33414E+00    0.13653E+00
    0.87073E+02    0.34583E+00    0.35616E+00
    0.89561E+02    0.35774E+00    0.56457E+00
    0.92049E+02    0.36765E+00    0.74934E+00
    0.94537E+02    0.37524E+00    0.83131E+00
    0.97024E+02    0.38390E+00    0.90554E+00
    0.99512E+02    0.39924E+00    0.94951E+00
    0.10200E+03    0.40010E+00    0.10000E+01
zone i=     42,T= "1dxhc;t= 0.1500E+03y,z:   1  12"
    0.00000E+00    0.50000E+00    0.00000E+00
    0.24878E+01    0.49719E+00    0.59727E-20
    0.49756E+01    0.49425E+00    0.63556E-20
    0.74634E+01    0.49096E+00    0.43829E-20
    0.99512E+01    0.48877E+00   -0.24288E-20
    0.12439E+02    0.48562E+00   -0.52728E-19
    0.14927E+02    0.48091E+00   -0.38543E-18
    0.17415E+02    0.47396E+00   -0.14446E-17
    0.19902E+02    0.46228E+00   -0.75453E-17
    0.22390E+02    0.45225E+00   -0.66653E-16
    0.24878E+02    0.44720E+00   -0.41863E-15
    0.27366E+02    0.44407E+00   -0.17658E-14
    0.29854E+02    0.44001E+00   -0.81016E-14
    0.32341E+02    0.43633E+00   -0.28170E-13
    0.34829E+02    0.43010E+00   -0.16396E-12
    0.37317E+02    0.42047E+00   -0.60902E-12
    0.39805E+02    0.41389E+00   -0.83069E-12
    0.42293E+02    0.40686E+00    0.13163E-11
    0.44780E+02    0.40023E+00    0.98078E-11
    0.47268E+02    0.39523E+00    0.27112E-10
    0.49756E+02    0.39178E+00    0.40052E-10
    0.52244E+02    0.38863E+00    0.48203E-11
    0.54732E+02    0.38405E+00    0.32621E-11
    0.57220E+02    0.37797E+00    0.68446E-10
    0.59707E+02    0.37184E+00    0.32137E-10
    0.62195E+02    0.36732E+00   -0.42535E-09
    0.64683E+02    0.35932E+00   -0.23447E-08
    0.67171E+02    0.35303E+00   -0.59335E-08
    0.69659E+02    0.34583E+00   -0.25155E-07
    0.72146E+02    0.34044E+00   -0.12799E-06
    0.74634E+02    0.33436E+00   -0.68767E-06
    0.77122E+02    0.32623E+00   -0.54807E-05
    0.79610E+02    0.32006E+00   -0.76628E-05
    0.82098E+02    0.31271E+00    0.32174E-04
    0.84585E+02    0.30480E+00    0.11985E-03
    0.87073E+02    0.29366E+00    0.65483E-03
    0.89561E+02    0.28332E+00    0.16033E-01
    0.92049E+02    0.26825E+00    0.61020E-01
    0.94537E+02    0.25301E+00    0.12823E+00
    0.97024E+02    0.22787E+00    0.23294E+00
    0.99512E+02    0.19809E+00    0.55213E+00
    0.10200E+03    0.16004E+00    0.10000E+01
zone i=     42,T= "1dxhc;t= 0.1500E+03y,z:   1  22"
    0.00000E+00    0.49902E+00   -0.31202E-18
    0.24878E+01    0.49562E+00   -0.71818E-18
    0.49756E+01    0.48208E+00   -0.35665E-17
    0.74634E+01    0.47187E+00   -0.89729E-17
    0.99512E+01    0.46037E+00   -0.23869E-16
    0.12439E+02    0.45335E+00   -0.57480E-16
    0.14927E+02    0.44665E+00   -0.13455E-15
    0.17415E+02    0.43942E+00   -0.85644E-15
    0.19902E+02    0.43233E+00   -0.79186E-14
    0.22390E+02    0.41996E+00   -0.61380E-13
    0.24878E+02    0.39151E+00   -0.43866E-12
    0.27366E+02    0.36945E+00   -0.15524E-11
    0.29854E+02    0.34069E+00   -0.67614E-11
    0.32341E+02    0.32176E+00   -0.19321E-10
    0.34829E+02    0.31567E+00   -0.40163E-10
    0.37317E+02    0.30944E+00   -0.72281E-10
    0.39805E+02    0.30412E+00   -0.13253E-09
    0.42293E+02    0.30014E+00   -0.22437E-09
    0.44780E+02    0.29537E+00   -0.92550E-09
    0.47268E+02    0.28725E+00   -0.26946E-08
    0.49756E+02    0.27672E+00   -0.33898E-08
    0.52244E+02    0.24906E+00   -0.89127E-08
    0.54732E+02    0.22440E+00   -0.14492E-07
    0.57220E+02    0.21196E+00   -0.63315E-08
    0.59707E+02    0.20221E+00   -0.12960E-07
    0.62195E+02    0.19255E+00   -0.21767E-07
    0.64683E+02    0.18251E+00   -0.47662E-07
    0.67171E+02    0.16915E+00   -0.36077E-06
    0.69659E+02    0.15713E+00   -0.77251E-06
    0.72146E+02    0.14761E+00   -0.14772E-05
    0.74634E+02    0.14128E+00   -0.23896E-05
    0.77122E+02    0.13300E+00    0.21574E-06
    0.79610E+02    0.12185E+00   -0.73564E-06
    0.82098E+02    0.10506E+00    0.35351E-05
    0.84585E+02    0.84240E-01    0.98235E-05
    0.87073E+02    0.74561E-01    0.18491E-04
    0.89561E+02    0.70017E-01    0.30775E-04
    0.92049E+02    0.63588E-01    0.48401E-04
    0.94537E+02    0.53909E-01    0.93369E-04
    0.97024E+02    0.40917E-01   -0.91607E-04
    0.99512E+02    0.20621E-01   -0.76664E-04
    0.10200E+03    0.49294E-02   -0.10085E-03
zone i=     42,T= "1dxhc;t= 0.3000E+03y,z:   1   1"
    0.00000E+00    0.50000E+00    0.00000E+00
    0.24878E+01    0.49750E+00    0.53393E-18
    0.49756E+01    0.49499E+00    0.21736E-17
    0.74634E+01    0.49198E+00    0.17372E-17
    0.99512E+01    0.48855E+00    0.31356E-17
    0.12439E+02    0.48380E+00    0.89857E-17
    0.14927E+02    0.47964E+00    0.46042E-17
    0.17415E+02    0.47486E+00    0.22226E-16
    0.19902E+02    0.47062E+00    0.42756E-16
    0.22390E+02    0.46339E+00    0.14478E-15
    0.24878E+02    0.45263E+00    0.89031E-15
    0.27366E+02    0.44296E+00    0.61624E-14
    0.29854E+02    0.43487E+00    0.39791E-13
    0.32341E+02    0.42901E+00    0.26735E-12
    0.34829E+02    0.42387E+00    0.19970E-11
    0.37317E+02    0.42189E+00    0.86221E-11
    0.39805E+02    0.41890E+00    0.24722E-10
    0.42293E+02    0.41575E+00    0.58901E-10
    0.44780E+02    0.41115E+00    0.15747E-09
    0.47268E+02    0.40015E+00    0.69833E-09
    0.49756E+02    0.39212E+00    0.23092E-08
    0.52244E+02    0.38652E+00    0.10372E-07
    0.54732E+02    0.38166E+00    0.45608E-07
    0.57220E+02    0.37788E+00    0.22339E-06
    0.59707E+02    0.37301E+00    0.92767E-06
    0.62195E+02    0.36626E+00    0.41678E-05
    0.64683E+02    0.36062E+00    0.15708E-04
    0.67171E+02    0.35456E+00    0.70697E-04
    0.69659E+02    0.34843E+00    0.24462E-03
    0.72146E+02    0.34400E+00    0.88220E-03
    0.74634E+02    0.33892E+00    0.32817E-02
    0.77122E+02    0.33431E+00    0.10055E-01
    0.79610E+02    0.33447E+00    0.61166E-01
    0.82098E+02    0.34508E+00    0.24799E+00
    0.84585E+02    0.35579E+00    0.44459E+00
    0.87073E+02    0.36633E+00    0.63688E+00
    0.89561E+02    0.37519E+00    0.75960E+00
    0.92049E+02    0.38204E+00    0.85575E+00
    0.94537E+02    0.38718E+00    0.90208E+00
    0.97024E+02    0.39281E+00    0.93838E+00
    0.99512E+02    0.40334E+00    0.97472E+00
    0.10200E+03    0.40010E+00    0.10000E+01
zone i=     42,T= "1dxhc;t= 0.3000E+03y,z:   1  12"
    0.00000E+00    0.50000E+00    0.00000E+00
    0.24878E+01    0.49720E+00    0.22941E-17
    0.49756E+01    0.49427E+00    0.20256E-17
    0.74634E+01    0.49100E+00    0.65591E-18
    0.99512E+01    0.48881E+00   -0.43617E-17
    0.12439E+02    0.48568E+00   -0.51054E-16
    0.14927E+02    0.48099E+00   -0.26024E-15
    0.17415E+02    0.47406E+00   -0.71064E-15
    0.19902E+02    0.46242E+00   -0.30113E-14
    0.22390E+02    0.45243E+00   -0.20260E-13
    0.24878E+02    0.44741E+00   -0.96828E-13
    0.27366E+02    0.44428E+00   -0.33283E-12
    0.29854E+02    0.44024E+00   -0.12929E-11
    0.32341E+02    0.43657E+00   -0.36304E-11
    0.34829E+02    0.43036E+00   -0.16115E-10
    0.37317E+02    0.42076E+00   -0.50866E-10
    0.39805E+02    0.41420E+00   -0.68623E-10
    0.42293E+02    0.40720E+00    0.49626E-10
    0.44780E+02    0.40059E+00    0.43559E-09
    0.47268E+02    0.39560E+00    0.11514E-08
    0.49756E+02    0.39217E+00    0.14391E-08
    0.52244E+02    0.38903E+00   -0.40907E-09
    0.54732E+02    0.38445E+00   -0.35118E-09
    0.57220E+02    0.37836E+00    0.79894E-09
    0.59707E+02    0.37219E+00   -0.73494E-08
    0.62195E+02    0.36763E+00   -0.20662E-07
    0.64683E+02    0.35953E+00   -0.67580E-07
    0.67171E+02    0.35310E+00   -0.11718E-06
    0.69659E+02    0.34564E+00   -0.54536E-06
    0.72146E+02    0.33991E+00   -0.14867E-05
    0.74634E+02    0.33332E+00   -0.97148E-05
    0.77122E+02    0.32419E+00   -0.56134E-04
    0.79610E+02    0.31695E+00    0.90400E-05
    0.82098E+02    0.30792E+00    0.30123E-03
    0.84585E+02    0.29816E+00    0.11138E-02
    0.87073E+02    0.28528E+00    0.40700E-02
    0.89561E+02    0.27442E+00    0.29356E-01
    0.92049E+02    0.25956E+00    0.83735E-01
    0.94537E+02    0.24520E+00    0.15340E+00
    0.97024E+02    0.22202E+00    0.25498E+00
    0.99512E+02    0.19473E+00    0.56277E+00
    0.10200E+03    0.16004E+00    0.10000E+01
zone i=     42,T= "1dxhc;t= 0.3000E+03y,z:   1  22"
    0.00000E+00    0.49902E+00   -0.22178E-15
    0.24878E+01    0.49562E+00   -0.42904E-15
    0.49756E+01    0.48208E+00   -0.17393E-14
    0.74634E+01    0.47187E+00   -0.37471E-14
    0.99512E+01    0.46037E+00   -0.88459E-14
    0.12439E+02    0.45335E+00   -0.19809E-13
    0.14927E+02    0.44665E+00   -0.43841E-13
    0.17415E+02    0.43941E+00   -0.22070E-12
    0.19902E+02    0.43232E+00   -0.14585E-11
    0.22390E+02    0.41995E+00   -0.79154E-11
    0.24878E+02    0.39149E+00   -0.38369E-10
    0.27366E+02    0.36943E+00   -0.10131E-09
    0.29854E+02    0.34067E+00   -0.34638E-09
    0.32341E+02    0.32173E+00   -0.79558E-09
    0.34829E+02    0.31565E+00   -0.14640E-08
    0.37317E+02    0.30941E+00   -0.24514E-08
    0.39805E+02    0.30409E+00   -0.41951E-08
    0.42293E+02    0.30010E+00   -0.69438E-08
    0.44780E+02    0.29534E+00   -0.22318E-07
    0.47268E+02    0.28721E+00   -0.48984E-07
    0.49756E+02    0.27668E+00   -0.61061E-07
    0.52244E+02    0.24899E+00   -0.13511E-06
    0.54732E+02    0.22432E+00   -0.19500E-06
    0.57220E+02    0.21187E+00   -0.96461E-07
    0.59707E+02    0.20212E+00   -0.20192E-06
    0.62195E+02    0.19245E+00   -0.27562E-06
    0.64683E+02    0.18240E+00   -0.50416E-06
    0.67171E+02    0.16904E+00   -0.25390E-05
    0.69659E+02    0.15701E+00   -0.40432E-05
    0.72146E+02    0.14749E+00   -0.62371E-05
    0.74634E+02    0.14115E+00   -0.92759E-05
    0.77122E+02    0.13288E+00   -0.20684E-05
    0.79610E+02    0.12173E+00   -0.47288E-05
    0.82098E+02    0.10495E+00    0.61021E-05
    0.84585E+02    0.84143E-01    0.23503E-04
    0.87073E+02    0.74483E-01    0.47570E-04
    0.89561E+02    0.69954E-01    0.67945E-04
    0.92049E+02    0.63551E-01    0.95622E-04
    0.94537E+02    0.53909E-01    0.14821E-03
    0.97024E+02    0.40937E-01   -0.25599E-04
    0.99512E+02    0.20637E-01   -0.15000E-04
    0.10200E+03    0.49342E-02    0.32322E-04
zone i=     42,T= "1dxhc;t= 0.4500E+03y,z:   1   1"
    0.00000E+00    0.50000E+00    0.00000E+00
    0.24878E+01    0.49751E+00    0.32344E-16
    0.49756E+01    0.49500E+00    0.11859E-15
    0.74634E+01    0.49201E+00    0.83110E-16
    0.99512E+01    0.48859E+00    0.14280E-15
    0.12439E+02    0.48386E+00    0.37094E-15
    0.14927E+02    0.47972E+00    0.29558E-15
    0.17415E+02    0.47495E+00    0.11408E-14
    0.19902E+02    0.47073E+00    0.23968E-14
    0.22390E+02    0.46352E+00    0.81327E-14
    0.24878E+02    0.45280E+00    0.43969E-13
    0.27366E+02    0.44316E+00    0.27113E-12
    0.29854E+02    0.43510E+00    0.15689E-11
    0.32341E+02    0.42927E+00    0.91361E-11
    0.34829E+02    0.42415E+00    0.59457E-10
    0.37317E+02    0.42218E+00    0.23557E-09
    0.39805E+02    0.41919E+00    0.69661E-09
    0.42293E+02    0.41606E+00    0.17861E-08
    0.44780E+02    0.41148E+00    0.49248E-08
    0.47268E+02    0.40051E+00    0.19926E-07
    0.49756E+02    0.39251E+00    0.61084E-07
    0.52244E+02    0.38693E+00    0.24582E-06
    0.54732E+02    0.38208E+00    0.92725E-06
    0.57220E+02    0.37830E+00    0.37857E-05
    0.59707E+02    0.37343E+00    0.13190E-04
    0.62195E+02    0.36669E+00    0.50297E-04
    0.64683E+02    0.36109E+00    0.16065E-03
    0.67171E+02    0.35516E+00    0.60582E-03
    0.69659E+02    0.34934E+00    0.18430E-02
    0.72146E+02    0.34539E+00    0.62218E-02
    0.74634E+02    0.34142E+00    0.21418E-01
    0.77122E+02    0.34050E+00    0.49874E-01
    0.79610E+02    0.34488E+00    0.24884E+00
    0.82098E+02    0.35770E+00    0.46363E+00
    0.84585E+02    0.36711E+00    0.59286E+00
    0.87073E+02    0.37586E+00    0.74221E+00
    0.89561E+02    0.38290E+00    0.82933E+00
    0.92049E+02    0.38823E+00    0.89549E+00
    0.94537E+02    0.39220E+00    0.92916E+00
    0.97024E+02    0.39648E+00    0.95156E+00
    0.99512E+02    0.40499E+00    0.98487E+00
    0.10200E+03    0.40010E+00    0.10000E+01
zone i=     42,T= "1dxhc;t= 0.4500E+03y,z:   1  12"
    0.00000E+00    0.50000E+00    0.00000E+00
    0.24878E+01    0.49721E+00    0.92862E-16
    0.49756E+01    0.49429E+00    0.65108E-16
    0.74634E+01    0.49103E+00   -0.88430E-17
    0.99512E+01    0.48885E+00   -0.29006E-15
    0.12439E+02    0.48573E+00   -0.25020E-14
    0.14927E+02    0.48106E+00   -0.10440E-13
    0.17415E+02    0.47415E+00   -0.24763E-13
    0.19902E+02    0.46256E+00   -0.91861E-13
    0.22390E+02    0.45260E+00   -0.51041E-12
    0.24878E+02    0.44759E+00   -0.20279E-11
    0.27366E+02    0.44448E+00   -0.62356E-11
    0.29854E+02    0.44045E+00   -0.21806E-10
    0.32341E+02    0.43680E+00   -0.53102E-10
    0.34829E+02    0.43060E+00   -0.19963E-09
    0.37317E+02    0.42103E+00   -0.56181E-09
    0.39805E+02    0.41450E+00   -0.72528E-09
    0.42293E+02    0.40753E+00    0.41675E-09
    0.44780E+02    0.40095E+00    0.37943E-08
    0.47268E+02    0.39599E+00    0.98122E-08
    0.49756E+02    0.39256E+00    0.12049E-07
    0.52244E+02    0.38943E+00   -0.45876E-08
    0.54732E+02    0.38486E+00   -0.35600E-08
    0.57220E+02    0.37877E+00    0.67098E-08
    0.59707E+02    0.37259E+00   -0.56643E-07
    0.62195E+02    0.36800E+00   -0.12520E-06
    0.64683E+02    0.35981E+00   -0.34022E-06
    0.67171E+02    0.35325E+00   -0.52615E-06
    0.69659E+02    0.34552E+00   -0.31746E-05
    0.72146E+02    0.33945E+00   -0.14276E-05
    0.74634E+02    0.33236E+00   -0.32456E-04
    0.77122E+02    0.32239E+00   -0.12946E-03
    0.79610E+02    0.31441E+00    0.14024E-03
    0.82098E+02    0.30453E+00    0.76290E-03
    0.84585E+02    0.29412E+00    0.23622E-02
    0.87073E+02    0.28088E+00    0.71132E-02
    0.89561E+02    0.27008E+00    0.36199E-01
    0.92049E+02    0.25558E+00    0.92926E-01
    0.94537E+02    0.24173E+00    0.16296E+00
    0.97024E+02    0.21949E+00    0.26306E+00
    0.99512E+02    0.19329E+00    0.56618E+00
    0.10200E+03    0.16004E+00    0.10000E+01
zone i=     42,T= "1dxhc;t= 0.4500E+03y,z:   1  22"
    0.00000E+00    0.49902E+00   -0.10465E-13
    0.24878E+01    0.49562E+00   -0.17751E-13
    0.49756E+01    0.48208E+00   -0.62751E-13
    0.74634E+01    0.47187E+00   -0.12591E-12
    0.99512E+01    0.46037E+00   -0.27725E-12
    0.12439E+02    0.45335E+00   -0.58386E-12
    0.14927E+02    0.44665E+00   -0.12410E-11
    0.17415E+02    0.43941E+00   -0.52339E-11
    0.19902E+02    0.43232E+00   -0.27118E-10
    0.22390E+02    0.41995E+00   -0.11441E-09
    0.24878E+02    0.39149E+00   -0.41917E-09
    0.27366E+02    0.36942E+00   -0.91651E-09
    0.29854E+02    0.34066E+00   -0.26686E-08
    0.32341E+02    0.32172E+00   -0.53875E-08
    0.34829E+02    0.31563E+00   -0.92856E-08
    0.37317E+02    0.30939E+00   -0.15086E-07
    0.39805E+02    0.30407E+00   -0.25052E-07
    0.42293E+02    0.30009E+00   -0.41081E-07
    0.44780E+02    0.29532E+00   -0.11365E-06
    0.47268E+02    0.28719E+00   -0.21370E-06
    0.49756E+02    0.27665E+00   -0.27065E-06
    0.52244E+02    0.24896E+00   -0.53573E-06
    0.54732E+02    0.22427E+00   -0.73918E-06
    0.57220E+02    0.21182E+00   -0.45065E-06
    0.59707E+02    0.20207E+00   -0.88738E-06
    0.62195E+02    0.19239E+00   -0.11326E-05
    0.64683E+02    0.18234E+00   -0.19163E-05
    0.67171E+02    0.16897E+00   -0.73597E-05
    0.69659E+02    0.15693E+00   -0.10280E-04
    0.72146E+02    0.14741E+00   -0.15002E-04
    0.74634E+02    0.14107E+00   -0.21102E-04
    0.77122E+02    0.13279E+00   -0.11176E-04
    0.79610E+02    0.12164E+00   -0.16564E-04
    0.82098E+02    0.10487E+00   -0.41399E-05
    0.84585E+02    0.84077E-01    0.17548E-04
    0.87073E+02    0.74427E-01    0.46716E-04
    0.89561E+02    0.69904E-01    0.64444E-04
    0.92049E+02    0.63513E-01    0.93980E-04
    0.94537E+02    0.53890E-01    0.14882E-03
    0.97024E+02    0.40940E-01   -0.42519E-04
    0.99512E+02    0.20647E-01   -0.35235E-04
    0.10200E+03    0.49374E-02   -0.74902E-05
zone i=     42,T= "1dxhc;t= 0.6000E+03y,z:   1   1"
    0.00000E+00    0.50000E+00    0.00000E+00
    0.24878E+01    0.49751E+00    0.57756E-15
    0.49756E+01    0.49502E+00    0.19509E-14
    0.74634E+01    0.49203E+00    0.12857E-14
    0.99512E+01    0.48862E+00    0.21541E-14
    0.12439E+02    0.48391E+00    0.53989E-14
    0.14927E+02    0.47977E+00    0.63447E-14
    0.17415E+02    0.47502E+00    0.21839E-13
    0.19902E+02    0.47080E+00    0.47614E-13
    0.22390E+02    0.46362E+00    0.16622E-12
    0.24878E+02    0.45292E+00    0.83157E-12
    0.27366E+02    0.44331E+00    0.47135E-11
    0.29854E+02    0.43527E+00    0.24700E-10
    0.32341E+02    0.42945E+00    0.12736E-09
    0.34829E+02    0.42435E+00    0.72534E-09
    0.37317E+02    0.42238E+00    0.26280E-08
    0.39805E+02    0.41941E+00    0.76944E-08
    0.42293E+02    0.41628E+00    0.19825E-07
    0.44780E+02    0.41171E+00    0.52419E-07
    0.47268E+02    0.40078E+00    0.19022E-06
    0.49756E+02    0.39280E+00    0.52215E-06
    0.52244E+02    0.38723E+00    0.18509E-05
    0.54732E+02    0.38238E+00    0.59518E-05
    0.57220E+02    0.37861E+00    0.20220E-04
    0.59707E+02    0.37375E+00    0.58313E-04
    0.62195E+02    0.36702E+00    0.18335E-03
    0.64683E+02    0.36146E+00    0.47879E-03
    0.67171E+02    0.35568E+00    0.14277E-02
    0.69659E+02    0.35024E+00    0.37498E-02
    0.72146E+02    0.34671E+00    0.11571E-01
    0.74634E+02    0.34454E+00   -0.15170E-01
    0.77122E+02    0.34769E+00    0.26832E+00
    0.79610E+02    0.35382E+00    0.42743E+00
    0.82098E+02    0.36582E+00    0.59060E+00
    0.84585E+02    0.37406E+00    0.68523E+00
    0.87073E+02    0.38149E+00    0.79664E+00
    0.89561E+02    0.38740E+00    0.86564E+00
    0.92049E+02    0.39181E+00    0.91718E+00
    0.94537E+02    0.39509E+00    0.94381E+00
    0.97024E+02    0.39857E+00    0.95938E+00
    0.99512E+02    0.40592E+00    0.99014E+00
    0.10200E+03    0.40010E+00    0.10000E+01
zone i=     42,T= "1dxhc;t= 0.6000E+03y,z:   1  12"
    0.00000E+00    0.50000E+00    0.00000E+00
    0.24878E+01    0.49722E+00    0.12084E-14
    0.49756E+01    0.49431E+00    0.65710E-15
    0.74634E+01    0.49106E+00   -0.39547E-15
    0.99512E+01    0.48888E+00   -0.48950E-14
    0.12439E+02    0.48577E+00   -0.32167E-13
    0.14927E+02    0.48111E+00   -0.11706E-12
    0.17415E+02    0.47421E+00   -0.25726E-12
    0.19902E+02    0.46265E+00   -0.86727E-12
    0.22390E+02    0.45272E+00   -0.41432E-11
    0.24878E+02    0.44773E+00   -0.14326E-10
    0.27366E+02    0.44463E+00   -0.40849E-10
    0.29854E+02    0.44061E+00   -0.13196E-09
    0.32341E+02    0.43696E+00   -0.29076E-09
    0.34829E+02    0.43078E+00   -0.97463E-09
    0.37317E+02    0.42123E+00   -0.25175E-08
    0.39805E+02    0.41472E+00   -0.31070E-08
    0.42293E+02    0.40777E+00    0.15950E-08
    0.44780E+02    0.40121E+00    0.14736E-07
    0.47268E+02    0.39626E+00    0.37558E-07
    0.49756E+02    0.39284E+00    0.48105E-07
    0.52244E+02    0.38972E+00   -0.15114E-07
    0.54732E+02    0.38516E+00   -0.14263E-07
    0.57220E+02    0.37907E+00    0.32661E-07
    0.59707E+02    0.37287E+00   -0.16759E-06
    0.62195E+02    0.36826E+00   -0.33678E-06
    0.64683E+02    0.35998E+00   -0.82709E-06
    0.67171E+02    0.35330E+00   -0.14739E-05
    0.69659E+02    0.34532E+00   -0.90617E-05
    0.72146E+02    0.33896E+00    0.42105E-05
    0.74634E+02    0.33146E+00   -0.52443E-04
    0.77122E+02    0.32087E+00   -0.16009E-03
    0.79610E+02    0.31245E+00    0.32761E-03
    0.82098E+02    0.30213E+00    0.12341E-02
    0.84585E+02    0.29146E+00    0.33907E-02
    0.87073E+02    0.27812E+00    0.93376E-02
    0.89561E+02    0.26740E+00    0.40127E-01
    0.92049E+02    0.25314E+00    0.97703E-01
    0.94537E+02    0.23961E+00    0.16796E+00
    0.97024E+02    0.21796E+00    0.26728E+00
    0.99512E+02    0.19242E+00    0.56776E+00
    0.10200E+03    0.16004E+00    0.10000E+01
zone i=     42,T= "1dxhc;t= 0.6000E+03y,z:   1  22"
    0.00000E+00    0.49902E+00   -0.13558E-12
    0.24878E+01    0.49562E+00   -0.20672E-12
    0.49756E+01    0.48208E+00   -0.66543E-12
    0.74634E+01    0.47187E+00   -0.12919E-11
    0.99512E+01    0.46037E+00   -0.27075E-11
    0.12439E+02    0.45335E+00   -0.54135E-11
    0.14927E+02    0.44665E+00   -0.11178E-10
    0.17415E+02    0.43941E+00   -0.41041E-10
    0.19902E+02    0.43232E+00   -0.17636E-09
    0.22390E+02    0.41995E+00   -0.61680E-09
    0.24878E+02    0.39149E+00   -0.18309E-08
    0.27366E+02    0.36942E+00   -0.35137E-08
    0.29854E+02    0.34065E+00   -0.91086E-08
    0.32341E+02    0.32171E+00   -0.16912E-07
    0.34829E+02    0.31563E+00   -0.27994E-07
    0.37317E+02    0.30938E+00   -0.44804E-07
    0.39805E+02    0.30406E+00   -0.73300E-07
    0.42293E+02    0.30008E+00   -0.11980E-06
    0.44780E+02    0.29531E+00   -0.30082E-06
    0.47268E+02    0.28718E+00   -0.51558E-06
    0.49756E+02    0.27663E+00   -0.65992E-06
    0.52244E+02    0.24893E+00   -0.12175E-05
    0.54732E+02    0.22424E+00   -0.16516E-05
    0.57220E+02    0.21178E+00   -0.12083E-05
    0.59707E+02    0.20202E+00   -0.22789E-05
    0.62195E+02    0.19234E+00   -0.28423E-05
    0.64683E+02    0.18229E+00   -0.46389E-05
    0.67171E+02    0.16891E+00   -0.14574E-04
    0.69659E+02    0.15687E+00   -0.18901E-04
    0.72146E+02    0.14734E+00   -0.26697E-04
    0.74634E+02    0.14100E+00   -0.35687E-04
    0.77122E+02    0.13273E+00   -0.25052E-04
    0.79610E+02    0.12158E+00   -0.33756E-04
    0.82098E+02    0.10481E+00   -0.22851E-04
    0.84585E+02    0.84025E-01   -0.11885E-05
    0.87073E+02    0.74381E-01    0.28302E-04
    0.89561E+02    0.69863E-01    0.43129E-04
    0.92049E+02    0.63477E-01    0.72784E-04
    0.94537E+02    0.53867E-01    0.13223E-03
    0.97024E+02    0.40934E-01   -0.79646E-04
    0.99512E+02    0.20651E-01   -0.70852E-04
    0.10200E+03    0.49389E-02   -0.76494E-04
zone i=     42,T= "1dxhc;t= 0.7500E+03y,z:   1   1"
    0.00000E+00    0.50000E+00    0.00000E+00
    0.24878E+01    0.49752E+00    0.49256E-14
    0.49756E+01    0.49503E+00    0.15689E-13
    0.74634E+01    0.49204E+00    0.10466E-13
    0.99512E+01    0.48864E+00    0.17385E-13
    0.12439E+02    0.48393E+00    0.45740E-13
    0.14927E+02    0.47980E+00    0.71865E-13
    0.17415E+02    0.47506E+00    0.23529E-12
    0.19902E+02    0.47086E+00    0.51131E-12
    0.22390E+02    0.46368E+00    0.18205E-11
    0.24878E+02    0.45301E+00    0.84518E-11
    0.27366E+02    0.44341E+00    0.43798E-10
    0.29854E+02    0.43539E+00    0.20560E-09
    0.32341E+02    0.42958E+00    0.93785E-09
    0.34829E+02    0.42449E+00    0.46537E-08
    0.37317E+02    0.42252E+00    0.15136E-07
    0.39805E+02    0.41955E+00    0.41988E-07
    0.42293E+02    0.41643E+00    0.10360E-06
    0.44780E+02    0.41187E+00    0.25434E-06
    0.47268E+02    0.40096E+00    0.81848E-06
    0.49756E+02    0.39299E+00    0.19907E-05
    0.52244E+02    0.38743E+00    0.62745E-05
    0.54732E+02    0.38260E+00    0.17875E-04
    0.57220E+02    0.37883E+00    0.54971E-04
    0.59707E+02    0.37397E+00    0.15215E-03
    0.62195E+02    0.36727E+00    0.47961E-03
    0.64683E+02    0.36175E+00    0.13175E-02
    0.67171E+02    0.35616E+00    0.41165E-02
    0.69659E+02    0.35114E+00    0.11326E-01
    0.72146E+02    0.34854E+00    0.39467E-01
    0.74634E+02    0.34838E+00    0.86724E-01
    0.77122E+02    0.35375E+00    0.35329E+00
    0.79610E+02    0.36045E+00    0.56307E+00
    0.82098E+02    0.37159E+00    0.67874E+00
    0.84585E+02    0.37882E+00    0.74463E+00
    0.87073E+02    0.38527E+00    0.83194E+00
    0.89561E+02    0.39038E+00    0.88836E+00
    0.92049E+02    0.39417E+00    0.93103E+00
    0.94537E+02    0.39698E+00    0.95310E+00
    0.97024E+02    0.39994E+00    0.96484E+00
    0.99512E+02    0.40652E+00    0.99319E+00
    0.10200E+03    0.40010E+00    0.10000E+01
zone i=     42,T= "1dxhc;t= 0.7500E+03y,z:   1  12"
    0.00000E+00    0.50000E+00    0.00000E+00
    0.24878E+01    0.49722E+00    0.74765E-14
    0.49756E+01    0.49432E+00    0.28310E-14
    0.74634E+01    0.49107E+00   -0.42661E-14
    0.99512E+01    0.48890E+00   -0.37632E-13
    0.12439E+02    0.48579E+00   -0.19514E-12
    0.14927E+02    0.48114E+00   -0.64081E-12
    0.17415E+02    0.47426E+00   -0.13513E-11
    0.19902E+02    0.46272E+00   -0.42327E-11
    0.22390E+02    0.45281E+00   -0.17822E-10
    0.24878E+02    0.44782E+00   -0.55216E-10
    0.27366E+02    0.44473E+00   -0.14936E-09
    0.29854E+02    0.44071E+00   -0.45251E-09
    0.32341E+02    0.43707E+00   -0.92877E-09
    0.34829E+02    0.43090E+00   -0.28600E-08
    0.37317E+02    0.42137E+00   -0.69152E-08
    0.39805E+02    0.41487E+00   -0.81748E-08
    0.42293E+02    0.40794E+00    0.41043E-08
    0.44780E+02    0.40140E+00    0.37234E-07
    0.47268E+02    0.39645E+00    0.93294E-07
    0.49756E+02    0.39304E+00    0.12495E-06
    0.52244E+02    0.38993E+00   -0.24507E-07
    0.54732E+02    0.38536E+00   -0.32800E-07
    0.57220E+02    0.37927E+00    0.98018E-07
    0.59707E+02    0.37306E+00   -0.29296E-06
    0.62195E+02    0.36842E+00   -0.59040E-06
    0.64683E+02    0.36006E+00   -0.14160E-05
    0.67171E+02    0.35327E+00   -0.32322E-05
    0.69659E+02    0.34508E+00   -0.16226E-04
    0.72146E+02    0.33846E+00    0.16516E-04
    0.74634E+02    0.33064E+00   -0.56072E-04
    0.77122E+02    0.31962E+00   -0.14726E-03
    0.79610E+02    0.31092E+00    0.51568E-03
    0.82098E+02    0.30037E+00    0.16459E-02
    0.84585E+02    0.28956E+00    0.41925E-02
    0.87073E+02    0.27619E+00    0.10927E-01
    0.89561E+02    0.26554E+00    0.42564E-01
    0.92049E+02    0.25146E+00    0.10054E+00
    0.94537E+02    0.23816E+00    0.17099E+00
    0.97024E+02    0.21691E+00    0.26991E+00
    0.99512E+02    0.19182E+00    0.56869E+00
    0.10200E+03    0.16004E+00    0.10000E+01
zone i=     42,T= "1dxhc;t= 0.7500E+03y,z:   1  22"
    0.00000E+00    0.49902E+00   -0.83693E-12
    0.24878E+01    0.49562E+00   -0.11686E-11
    0.49756E+01    0.48208E+00   -0.35231E-11
    0.74634E+01    0.47187E+00   -0.67306E-11
    0.99512E+01    0.46037E+00   -0.13576E-10
    0.12439E+02    0.45335E+00   -0.26050E-10
    0.14927E+02    0.44665E+00   -0.52697E-10
    0.17415E+02    0.43941E+00   -0.17318E-09
    0.19902E+02    0.43232E+00   -0.64139E-09
    0.22390E+02    0.41994E+00   -0.19416E-08
    0.24878E+02    0.39148E+00   -0.48997E-08
    0.27366E+02    0.36941E+00   -0.85481E-08
    0.29854E+02    0.34065E+00   -0.20273E-07
    0.32341E+02    0.32170E+00   -0.35503E-07
    0.34829E+02    0.31562E+00   -0.57163E-07
    0.37317E+02    0.30937E+00   -0.90671E-07
    0.39805E+02    0.30405E+00   -0.14714E-06
    0.42293E+02    0.30007E+00   -0.24043E-06
    0.44780E+02    0.29530E+00   -0.56521E-06
    0.47268E+02    0.28716E+00   -0.91300E-06
    0.49756E+02    0.27662E+00   -0.11756E-05
    0.52244E+02    0.24891E+00   -0.20719E-05
    0.54732E+02    0.22421E+00   -0.27978E-05
    0.57220E+02    0.21175E+00   -0.23598E-05
    0.59707E+02    0.20199E+00   -0.43765E-05
    0.62195E+02    0.19230E+00   -0.53981E-05
    0.64683E+02    0.18224E+00   -0.86485E-05
    0.67171E+02    0.16887E+00   -0.23301E-04
    0.69659E+02    0.15682E+00   -0.28765E-04
    0.72146E+02    0.14729E+00   -0.39271E-04
    0.74634E+02    0.14095E+00   -0.50302E-04
    0.77122E+02    0.13267E+00   -0.40065E-04
    0.79610E+02    0.12153E+00   -0.51995E-04
    0.82098E+02    0.10476E+00   -0.43513E-04
    0.84585E+02    0.83984E-01   -0.23408E-04
    0.87073E+02    0.74345E-01    0.48807E-05
    0.89561E+02    0.69828E-01    0.17793E-04
    0.92049E+02    0.63447E-01    0.47378E-04
    0.94537E+02    0.53843E-01    0.11127E-03
    0.97024E+02    0.40923E-01   -0.11398E-03
    0.99512E+02    0.20650E-01   -0.10175E-03
    0.10200E+03    0.49390E-02   -0.13494E-03
zone i=     42,T= "1dxhc;t= 0.9000E+03y,z:   1   1"
    0.00000E+00    0.50000E+00    0.00000E+00
    0.24878E+01    0.49752E+00    0.26088E-13
    0.49756E+01    0.49503E+00    0.80549E-13