          Title="3D head and conc at t=   0.2500E+04 days"
          variables="x","y","z","head","conc"
          zone i=      22, j=      42, k=      42, T="3D"
  0.00000000E+00  0.00000000E+00  0.00000000E+00  0.50000000E+00  0.00000000E+00
  0.00000000E+00  0.00000000E+00  0.97614404E+00  0.50000000E+00  0.00000000E+00
  0.00000000E+00  0.00000000E+00  0.19522881E+01  0.50000000E+00  0.00000000E+00
  0.00000000E+00  0.00000000E+00  0.29284321E+01  0.50000000E+00  0.00000000E+00
  0.00000000E+00  0.00000000E+00  0.39045762E+01  0.50000000E+00  0.00000000E+00
  0.00000000E+00  0.00000000E+00  0.48807202E+01  0.50000000E+00  0.00000000E+00
  0.00000000E+00  0.00000000E+00  0.58568642E+01  0.50000000E+00  0.00000000E+00
  0.00000000E+00  0.00000000E+00  0.68330083E+01  0.50000000E+00  0.00000000E+00
  0.00000000E+00  0.00000000E+00  0.78091523E+01  0.50000000E+00  0.00000000E+00
  0.00000000E+00  0.00000000E+00  0.87852964E+01  0.50000000E+00  0.00000000E+00
  0.00000000E+00  0.00000000E+00  0.97614404E+01  0.50000000E+00  0.00000000E+00
  0.00000000E+00  0.00000000E+00  0.10737584E+02  0.50000000E+00  0.00000000E+00
  0.00000000E+00  0.00000000E+00  0.11713728E+02  0.50000000E+00  0.00000000E+00
  0.00000000E+00  0.00000000E+00  0.12689873E+02  0.50000000E+00  0.00000000E+00
  0.00000000E+00  0.00000000E+00  0.13666017E+02  0.50000000E+00  0.00000000E+00
  0.00000000E+00  0.00000000E+00  0.14642161E+02  0.50000000E+00  0.00000000E+00
  0.00000000E+00  0.00000000E+00  0.15618305E+02  0.50000000E+00  0.00000000E+00
  0.00000000E+00  0.00000000E+00  0.16594449E+02  0.50000000E+00  0.00000000E+00
  0.00000000E+00  0.00000000E+00  0.17570593E+02  0.50000000E+00  0.00000000E+00
  0.00000000E+00  0.00000000E+00  0.18546737E+02  0.50000000E+00  0.00000000E+00
  0.00000000E+00  0.00000000E+00  0.19522881E+02  0.50000000E+00  0.00000000E+00
  0.00000000E+00  0.00000000E+00  0.20499025E+02  0.49902341E+00 -0.35805412E-09
  0.00000000E+00  0.24878049E+01  0.00000000E+00  0.50000000E+00  0.00000000E+00
  0.00000000E+00  0.24878049E+01  0.97614183E+00  0.50000000E+00  0.00000000E+00
  0.00000000E+00  0.24878049E+01  0.19522837E+01  0.50000000E+00  0.00000000E+00
  0.00000000E+00  0.24878049E+01  0.29284255E+01  0.50000000E+00  0.00000000E+00
  0.00000000E+00  0.24878049E+01  0.39045673E+01  0.50000000E+00  0.00000000E+00
  0.00000000E+00  0.24878049E+01  0.48807091E+01  0.50000000E+00  0.00000000E+00
  0.00000000E+00  0.24878049E+01  0.58568510E+01  0.50000000E+00  0.00000000E+00
  0.00000000E+00  0.24878049E+01  0.68329928E+01  0.50000000E+00  0.00000000E+00
  0.00000000E+00  0.24878049E+01  0.78091346E+01  0.50000000E+00  0.00000000E+00
  0.00000000E+00  0.24878049E+01  0.87852764E+01  0.50000000E+00  0.00000000E+00
  0.00000000E+00  0.24878049E+01  0.97614183E+01  0.50000000E+00  0.00000000E+00
  0.00000000E+00  0.24878049E+01  0.10737560E+02  0.50000000E+00  0.00000000E+00
  0.00000000E+00  0.24878049E+01  0.11713702E+02  0.50000000E+00  0.00000000E+00
  0.00000000E+00  0.24878049E+01  0.12689844E+02  0.50000000E+00  0.00000000E+00
  0.00000000E+00  0.24878049E+01  0.13665986E+02  0.50000000E+00  0.00000000E+00
  0.00000000E+00  0.24878049E+01  0.14642127E+02  0.50000000E+00  0.00000000E+00
  0.00000000E+00  0.24878049E+01  0.15618269E+02  0.50000000E+00  0.00000000E+00
  0.00000000E+00  0.24878049E+01  0.16594411E+02  0.50000000E+00  0.00000000E+00
  0.00000000E+00  0.24878049E+01  0.17570553E+02  0.50000000E+00  0.00000000E+00
  0.00000000E+00  0.24878049E+01  0.18546695E+02  0.50000000E+00  0.00000000E+00
  0.00000000E+00  0.24878049E+01  0.19522837E+02  0.50000000E+00  0.00000000E+00
  0.00000000E+00  0.24878049E+01  0.20498978E+02  0.49897705E+00 -0.30560240E-09
  0.00000000E+00  0.49756098E+01  0.00000000E+00  0.50000000E+00  0.00000000E+00
  0.00000000E+00  0.49756098E+01  0.97613762E+00  0.50000000E+00  0.00000000E+00
  0.00000000E+00  0.49756098E+01  0.19522752E+01  0.50000000E+00  0.00000000E+00
  0.00000000E+00  0.49756098E+01  0.29284129E+01  0.50000000E+00  0.00000000E+00
  0.00000000E+00  0.49756098E+01  0.39045505E+01  0.50000000E+00  0.00000000E+00
  0.00000000E+00  0.49756098E+01  0.48806881E+01  0.50000000E+00  0.00000000E+00
  0.00000000E+00  0.49756098E+01  0.58568257E+01  0.50000000E+00  0.00000000E+00
  0.00000000E+00  0.49756098E+01  0.68329633E+01  0.50000000E+00  0.00000000E+00
  0.00000000E+00  0.49756098E+01  0.78091009E+01  0.50000000E+00  0.00000000E+00
  0.00000000E+00  0.49756098E+01  0.87852386E+01  0.50000000E+00  0.00000000E+00
  0.00000000E+00  0.49756098E+01  0.97613762E+01  0.50000000E+00  0.00000000E+00
  0.00000000E+00  0.49756098E+01  0.10737514E+02  0.50000000E+00  0.00000000E+00
  0.00000000E+00  0.49756098E+01  0.11713651E+02  0.50000000E+00  0.00000000E+00
  0.00000000E+00  0.49756098E+01  0.12689789E+02  0.50000000E+00  0.00000000E+00
  0.00000000E+00  0.49756098E+01  0.13665927E+02  0.50000000E+00  0.00000000E+00
  0.00000000E+00  0.49756098E+01  0.14642064E+02  0.50000000E+00  0.00000000E+00
  0.00000000E+00  0.49756098E+01  0.15618202E+02  0.50000000E+00  0.00000000E+00
  0.00000000E+00  0.49756098E+01  0.16594340E+02  0.50000000E+00  0.00000000E+00
  0.00000000E+00  0.49756098E+01  0.17570477E+02  0.50000000E+00  0.00000000E+00
  0.00000000E+00  0.49756098E+01  0.18546615E+02  0.50000000E+00  0.00000000E+00
  0.00000000E+00  0.49756098E+01  0.19522752E+02  0.50000000E+00  0.00000000E+00
  0.00000000E+00  0.49756098E+01  0.20498890E+02  0.49888880E+00 -0.26703249E-09
  0.00000000E+00  0.74634146E+01  0.00000000E+00  0.50000000E+00  0.00000000E+00
  0.00000000E+00  0.74634146E+01  0.97612879E+00  0.50000000E+00  0.00000000E+00
  0.00000000E+00  0.74634146E+01  0.19522576E+01  0.50000000E+00  0.00000000E+00
  0.00000000E+00  0.74634146E+01  0.29283864E+01  0.50000000E+00  0.00000000E+00
  0.00000000E+00  0.74634146E+01  0.39045152E+01  0.50000000E+00  0.00000000E+00
  0.00000000E+00  0.74634146E+01  0.48806440E+01  0.50000000E+00  0.00000000E+00
  0.00000000E+00  0.74634146E+01  0.58567728E+01  0.50000000E+00  0.00000000E+00
  0.00000000E+00  0.74634146E+01  0.68329015E+01  0.50000000E+00  0.00000000E+00
  0.00000000E+00  0.74634146E+01  0.78090303E+01  0.50000000E+00  0.00000000E+00
  0.00000000E+00  0.74634146E+01  0.87851591E+01  0.50000000E+00  0.00000000E+00
  0.00000000E+00  0.74634146E+01  0.97612879E+01  0.50000000E+00  0.00000000E+00
  0.00000000E+00  0.74634146E+01  0.10737417E+02  0.50000000E+00  0.00000000E+00
  0.00000000E+00  0.74634146E+01  0.11713546E+02  0.50000000E+00  0.00000000E+00
  0.00000000E+00  0.74634146E+01  0.12689674E+02  0.50000000E+00  0.00000000E+00
  0.00000000E+00  0.74634146E+01  0.13665803E+02  0.50000000E+00  0.00000000E+00
  0.00000000E+00  0.74634146E+01  0.14641932E+02  0.50000000E+00  0.00000000E+00
  0.00000000E+00  0.74634146E+01  0.15618061E+02  0.50000000E+00  0.00000000E+00
  0.00000000E+00  0.74634146E+01  0.16594189E+02  0.50000000E+00  0.00000000E+00
  0.00000000E+00  0.74634146E+01  0.17570318E+02  0.50000000E+00  0.00000000E+00
  0.00000000E+00  0.74634146E+01  0.18546447E+02  0.50000000E+00  0.00000000E+00
  0.00000000E+00  0.74634146E+01  0.19522576E+02  0.50000000E+00  0.00000000E+00
  0.00000000E+00  0.74634146E+01  0.20498705E+02  0.49870351E+00 -0.23422805E-09
  0.00000000E+00  0.99512195E+01  0.00000000E+00  0.50000000E+00  0.00000000E+00
  0.00000000E+00  0.99512195E+01  0.97610379E+00  0.50000000E+00  0.00000000E+00
  0.00000000E+00  0.99512195E+01  0.19522076E+01  0.50000000E+00  0.00000000E+00
  0.00000000E+00  0.99512195E+01  0.29283114E+01  0.50000000E+00  0.00000000E+00
  0.00000000E+00  0.99512195E+01  0.39044152E+01  0.50000000E+00  0.00000000E+00
  0.00000000E+00  0.99512195E+01  0.48805189E+01  0.50000000E+00  0.00000000E+00
  0.00000000E+00  0.99512195E+01  0.58566227E+01  0.50000000E+00  0.00000000E+00
  0.00000000E+00  0.99512195E+01  0.68327265E+01  0.50000000E+00  0.00000000E+00
  0.00000000E+00  0.99512195E+01  0.78088303E+01  0.50000000E+00  0.00000000E+00
  0.00000000E+00  0.99512195E+01  0.87849341E+01  0.50000000E+00  0.00000000E+00
  0.00000000E+00  0.99512195E+01  0.97610379E+01  0.50000000E+00  0.00000000E+00
  0.00000000E+00  0.99512195E+01  0.10737142E+02  0.50000000E+00  0.00000000E+00
  0.00000000E+00  0.99512195E+01  0.11713245E+02  0.50000000E+00  0.00000000E+00
  0.00000000E+00  0.99512195E+01  0.12689349E+02  0.50000000E+00  0.00000000E+00
  0.00000000E+00  0.99512195E+01  0.13665453E+02  0.50000000E+00  0.00000000E+00
  0.00000000E+00  0.99512195E+01  0.14641557E+02  0.50000000E+00  0.00000000E+00
  0.00000000E+00  0.99512195E+01  0.15617661E+02  0.50000000E+00  0.00000000E+00
  0.00000000E+00  0.99512195E+01  0.16593764E+02  0.50000000E+00  0.00000000E+00
  0.00000000E+00  0.99512195E+01  0.17569868E+02  0.50000000E+00  0.00000000E+00
  0.00000000E+00  0.99512195E+01  0.18545972E+02  0.50000000E+00  0.00000000E+00
  0.00000000E+00  0.99512195E+01  0.19522076E+02  0.50000000E+00  0.00000000E+00
  0.00000000E+00  0.99512195E+01  0.20498180E+02  0.49817852E+00 -0.13780980E-09
  0.00000000E+00  0.12439024E+02  0.00000000E+00  0.50000000E+00  0.00000000E+00
  0.00000000E+00  0.12439024E+02  0.97609202E+00  0.50000000E+00  0.00000000E+00
  0.00000000E+00  0.12439024E+02  0.19521840E+01  0.50000000E+00  0.00000000E+00
  0.00000000E+00  0.12439024E+02  0.29282761E+01  0.50000000E+00  0.00000000E+00
  0.00000000E+00  0.12439024E+02  0.39043681E+01  0.50000000E+00  0.00000000E+00
  0.00000000E+00  0.12439024E+02  0.48804601E+01  0.50000000E+00  0.00000000E+00
  0.00000000E+00  0.12439024E+02  0.58565521E+01  0.50000000E+00  0.00000000E+00
  0.00000000E+00  0.12439024E+02  0.68326442E+01  0.50000000E+00  0.00000000E+00
  0.00000000E+00  0.12439024E+02  0.78087362E+01  0.50000000E+00  0.00000000E+00
  0.00000000E+00  0.12439024E+02  0.87848282E+01  0.50000000E+00  0.00000000E+00
  0.00000000E+00  0.12439024E+02  0.97609202E+01  0.50000000E+00  0.00000000E+00
  0.00000000E+00  0.12439024E+02  0.10737012E+02  0.50000000E+00  0.00000000E+00
  0.00000000E+00  0.12439024E+02  0.11713104E+02  0.50000000E+00  0.00000000E+00
  0.00000000E+00  0.12439024E+02  0.12689196E+02  0.50000000E+00  0.00000000E+00
  0.00000000E+00  0.12439024E+02  0.13665288E+02  0.50000000E+00  0.00000000E+00
  0.00000000E+00  0.12439024E+02  0.14641380E+02  0.50000000E+00  0.00000000E+00
  0.00000000E+00  0.12439024E+02  0.15617472E+02  0.50000000E+00  0.00000000E+00
  0.00000000E+00  0.12439024E+02  0.16593564E+02  0.50000000E+00  0.00000000E+00
  0.00000000E+00  0.12439024E+02  0.17569656E+02  0.50000000E+00  0.00000000E+00
  0.00000000E+00  0.12439024E+02  0.18545748E+02  0.50000000E+00  0.00000000E+00
  0.00000000E+00  0.12439024E+02  0.19521840E+02  0.50000000E+00  0.00000000E+00
  0.00000000E+00  0.12439024E+02  0.20497932E+02  0.49793148E+00 -0.10005467E-09
  0.00000000E+00  0.14926829E+02  0.00000000E+00  0.50000000E+00  0.00000000E+00
  0.00000000E+00  0.14926829E+02  0.97608725E+00  0.50000000E+00  0.00000000E+00
  0.00000000E+00  0.14926829E+02  0.19521745E+01  0.50000000E+00  0.00000000E+00
  0.00000000E+00  0.14926829E+02  0.29282617E+01  0.50000000E+00  0.00000000E+00
  0.00000000E+00  0.14926829E+02  0.39043490E+01  0.50000000E+00  0.00000000E+00
  0.00000000E+00  0.14926829E+02  0.48804362E+01  0.50000000E+00  0.00000000E+00
  0.00000000E+00  0.14926829E+02  0.58565235E+01  0.50000000E+00  0.00000000E+00
  0.00000000E+00  0.14926829E+02  0.68326107E+01  0.50000000E+00  0.00000000E+00
  0.00000000E+00  0.14926829E+02  0.78086980E+01  0.50000000E+00  0.00000000E+00
  0.00000000E+00  0.14926829E+02  0.87847852E+01  0.50000000E+00  0.00000000E+00
  0.00000000E+00  0.14926829E+02  0.97608725E+01  0.50000000E+00  0.00000000E+00
  0.00000000E+00  0.14926829E+02  0.10736960E+02  0.50000000E+00  0.00000000E+00
  0.00000000E+00  0.14926829E+02  0.11713047E+02  0.50000000E+00  0.00000000E+00
  0.00000000E+00  0.14926829E+02  0.12689134E+02  0.50000000E+00  0.00000000E+00
  0.00000000E+00  0.14926829E+02  0.13665221E+02  0.50000000E+00  0.00000000E+00
  0.00000000E+00  0.14926829E+02  0.14641309E+02  0.50000000E+00  0.00000000E+00
  0.00000000E+00  0.14926829E+02  0.15617396E+02  0.50000000E+00  0.00000000E+00
  0.00000000E+00  0.14926829E+02  0.16593483E+02  0.50000000E+00  0.00000000E+00
  0.00000000E+00  0.14926829E+02  0.17569570E+02  0.50000000E+00  0.00000000E+00
  0.00000000E+00  0.14926829E+02  0.18545658E+02  0.50000000E+00  0.00000000E+00
  0.00000000E+00  0.14926829E+02  0.19521745E+02  0.50000000E+00  0.00000000E+00
  0.00000000E+00  0.14926829E+02  0.20497832E+02  0.49783132E+00 -0.11848953E-09
  0.00000000E+00  0.17414634E+02  0.00000000E+00  0.50000000E+00  0.00000000E+00
  0.00000000E+00  0.17414634E+02  0.97606643E+00  0.50000000E+00  0.00000000E+00
  0.00000000E+00  0.17414634E+02  0.19521329E+01  0.50000000E+00  0.00000000E+00
  0.00000000E+00  0.17414634E+02  0.29281993E+01  0.50000000E+00  0.00000000E+00
  0.00000000E+00  0.17414634E+02  0.39042657E+01  0.50000000E+00  0.00000000E+00
  0.00000000E+00  0.17414634E+02  0.48803322E+01  0.50000000E+00  0.00000000E+00
  0.00000000E+00  0.17414634E+02  0.58563986E+01  0.50000000E+00  0.00000000E+00
  0.00000000E+00  0.17414634E+02  0.68324650E+01  0.50000000E+00  0.00000000E+00
  0.00000000E+00  0.17414634E+02  0.78085315E+01  0.50000000E+00  0.00000000E+00
  0.00000000E+00  0.17414634E+02  0.87845979E+01  0.50000000E+00  0.00000000E+00
  0.00000000E+00  0.17414634E+02  0.97606643E+01  0.50000000E+00  0.00000000E+00
  0.00000000E+00  0.17414634E+02  0.10736731E+02  0.50000000E+00  0.00000000E+00
  0.00000000E+00  0.17414634E+02  0.11712797E+02  0.50000000E+00  0.00000000E+00
  0.00000000E+00  0.17414634E+02  0.12688864E+02  0.50000000E+00  0.00000000E+00
  0.00000000E+00  0.17414634E+02  0.13664930E+02  0.50000000E+00  0.00000000E+00
  0.00000000E+00  0.17414634E+02  0.14640996E+02  0.50000000E+00  0.00000000E+00
  0.00000000E+00  0.17414634E+02  0.15617063E+02  0.50000000E+00  0.00000000E+00
  0.00000000E+00  0.17414634E+02  0.16593129E+02  0.50000000E+00  0.00000000E+00
  0.00000000E+00  0.17414634E+02  0.17569196E+02  0.50000000E+00  0.00000000E+00
  0.00000000E+00  0.17414634E+02  0.18545262E+02  0.50000000E+00  0.00000000E+00
  0.00000000E+00  0.17414634E+02  0.19521329E+02  0.50000000E+00  0.00000000E+00
  0.00000000E+00  0.17414634E+02  0.20497395E+02  0.49739414E+00 -0.10727010E-09
  0.00000000E+00  0.19902439E+02  0.00000000E+00  0.50000000E+00  0.00000000E+00
  0.00000000E+00  0.19902439E+02  0.97607195E+00  0.50000000E+00  0.00000000E+00
  0.00000000E+00  0.19902439E+02  0.19521439E+01  0.50000000E+00  0.00000000E+00
  0.00000000E+00  0.19902439E+02  0.29282159E+01  0.50000000E+00  0.00000000E+00
  0.00000000E+00  0.19902439E+02  0.39042878E+01  0.50000000E+00  0.00000000E+00
  0.00000000E+00  0.19902439E+02  0.48803598E+01  0.50000000E+00  0.00000000E+00
  0.00000000E+00  0.19902439E+02  0.58564317E+01  0.50000000E+00  0.00000000E+00
  0.00000000E+00  0.19902439E+02  0.68325037E+01  0.50000000E+00  0.00000000E+00
  0.00000000E+00  0.19902439E+02  0.78085756E+01  0.50000000E+00  0.00000000E+00
  0.00000000E+00  0.19902439E+02  0.87846476E+01  0.50000000E+00  0.00000000E+00
  0.00000000E+00  0.19902439E+02  0.97607195E+01  0.50000000E+00  0.00000000E+00
  0.00000000E+00  0.19902439E+02  0.10736791E+02  0.50000000E+00  0.00000000E+00
  0.00000000E+00  0.19902439E+02  0.11712863E+02  0.50000000E+00  0.00000000E+00
  0.00000000E+00  0.19902439E+02  0.12688935E+02  0.50000000E+00  0.00000000E+00
  0.00000000E+00  0.19902439E+02  0.13665007E+02  0.50000000E+00  0.00000000E+00
  0.00000000E+00  0.19902439E+02  0.14641079E+02  0.50000000E+00  0.00000000E+00
  0.00000000E+00  0.19902439E+02  0.15617151E+02  0.50000000E+00  0.00000000E+00
  0.00000000E+00  0.19902439E+02  0.16593223E+02  0.50000000E+00  0.00000000E+00
  0.00000000E+00  0.19902439E+02  0.17569295E+02  0.50000000E+00  0.00000000E+00
  0.00000000E+00  0.19902439E+02  0.18545367E+02  0.50000000E+00  0.00000000E+00
  0.00000000E+00  0.19902439E+02  0.19521439E+02  0.50000000E+00  0.00000000E+00
  0.00000000E+00  0.19902439E+02  0.20497511E+02  0.49751011E+00 -0.91342436E-10
  0.00000000E+00  0.22390244E+02  0.00000000E+00  0.50000000E+00  0.00000000E+00
  0.00000000E+00  0.22390244E+02  0.97608347E+00  0.50000000E+00  0.00000000E+00
  0.00000000E+00  0.22390244E+02  0.19521669E+01  0.50000000E+00  0.00000000E+00
  0.00000000E+00  0.22390244E+02  0.29282504E+01  0.50000000E+00  0.00000000E+00
  0.00000000E+00  0.22390244E+02  0.39043339E+01  0.50000000E+00  0.00000000E+00
  0.00000000E+00  0.22390244E+02  0.48804174E+01  0.50000000E+00  0.00000000E+00
  0.00000000E+00  0.22390244E+02  0.58565008E+01  0.50000000E+00  0.00000000E+00
  0.00000000E+00  0.22390244E+02  0.68325843E+01  0.50000000E+00  0.00000000E+00
  0.00000000E+00  0.22390244E+02  0.78086678E+01  0.50000000E+00  0.00000000E+00
  0.00000000E+00  0.22390244E+02  0.87847513E+01  0.50000000E+00  0.00000000E+00
  0.00000000E+00  0.22390244E+02  0.97608347E+01  0.50000000E+00  0.00000000E+00
  0.00000000E+00  0.22390244E+02  0.10736918E+02  0.50000000E+00  0.00000000E+00
  0.00000000E+00  0.22390244E+02  0.11713002E+02  0.50000000E+00  0.00000000E+00
  0.00000000E+00  0.22390244E+02  0.12689085E+02  0.50000000E+00  0.00000000E+00
  0.00000000E+00  0.22390244E+02  0.13665169E+02  0.50000000E+00  0.00000000E+00
  0.00000000E+00  0.22390244E+02  0.14641252E+02  0.50000000E+00  0.00000000E+00
  0.00000000E+00  0.22390244E+02  0.15617336E+02  0.50000000E+00  0.00000000E+00
  0.00000000E+00  0.22390244E+02  0.16593419E+02  0.50000000E+00  0.00000000E+00
  0.00000000E+00  0.22390244E+02  0.17569503E+02  0.50000000E+00  0.00000000E+00
  0.00000000E+00  0.22390244E+02  0.18545586E+02  0.50000000E+00  0.00000000E+00
  0.00000000E+00  0.22390244E+02  0.19521669E+02  0.50000000E+00  0.00000000E+00
  0.00000000E+00  0.22390244E+02  0.20497753E+02  0.49775191E+00 -0.82560723E-10
  0.00000000E+00  0.24878049E+02  0.00000000E+00  0.50000000E+00  0.00000000E+00
  0.00000000E+00  0.24878049E+02  0.97607354E+00  0.50000000E+00  0.00000000E+00
  0.00000000E+00  0.24878049E+02  0.19521471E+01  0.50000000E+00  0.00000000E+00
  0.00000000E+00  0.24878049E+02  0.29282206E+01  0.50000000E+00  0.00000000E+00
  0.00000000E+00  0.24878049E+02  0.39042942E+01  0.50000000E+00  0.00000000E+00
  0.00000000E+00  0.24878049E+02  0.48803677E+01  0.50000000E+00  0.00000000E+00
  0.00000000E+00  0.24878049E+02  0.58564413E+01  0.50000000E+00  0.00000000E+00
  0.00000000E+00  0.24878049E+02  0.68325148E+01  0.50000000E+00  0.00000000E+00
  0.00000000E+00  0.24878049E+02  0.78085883E+01  0.50000000E+00  0.00000000E+00
  0.00000000E+00  0.24878049E+02  0.87846619E+01  0.50000000E+00  0.00000000E+00
  0.00000000E+00  0.24878049E+02  0.97607354E+01  0.50000000E+00  0.00000000E+00
  0.00000000E+00  0.24878049E+02  0.10736809E+02  0.50000000E+00  0.00000000E+00
  0.00000000E+00  0.24878049E+02  0.11712883E+02  0.50000000E+00  0.00000000E+00
  0.00000000E+00  0.24878049E+02  0.12688956E+02  0.50000000E+00  0.00000000E+00
  0.00000000E+00  0.24878049E+02  0.13665030E+02  0.50000000E+00  0.00000000E+00
  0.00000000E+00  0.24878049E+02  0.14641103E+02  0.50000000E+00  0.00000000E+00
  0.00000000E+00  0.24878049E+02  0.15617177E+02  0.50000000E+00  0.00000000E+00
  0.00000000E+00  0.24878049E+02  0.16593250E+02  0.50000000E+00  0.00000000E+00
  0.00000000E+00  0.24878049E+02  0.17569324E+02  0.50000000E+00  0.00000000E+00
  0.00000000E+00  0.24878049E+02  0.18545397E+02  0.50000000E+00  0.00000000E+00
  0.00000000E+00  0.24878049E+02  0.19521471E+02  0.50000000E+00  0.00000000E+00
  0.00000000E+00  0.24878049E+02  0.20497544E+02  0.49754304E+00 -0.69281201E-10
  0.00000000E+00  0.27365854E+02  0.00000000E+00  0.50000000E+00  0.00000000E+00
  0.00000000E+00  0.27365854E+02  0.97607640E+00  0.50000000E+00  0.00000000E+00
  0.00000000E+00  0.27365854E+02  0.19521528E+01  0.50000000E+00  0.00000000E+00
  0.00000000E+00  0.27365854E+02  0.29282292E+01  0.50000000E+00  0.00000000E+00
  0.00000000E+00  0.27365854E+02  0.39043056E+01  0.50000000E+00  0.00000000E+00
  0.00000000E+00  0.27365854E+02  0.48803820E+01  0.50000000E+00  0.00000000E+00
  0.00000000E+00  0.27365854E+02  0.58564584E+01  0.50000000E+00  0.00000000E+00
  0.00000000E+00  0.27365854E+02  0.68325348E+01  0.50000000E+00  0.00000000E+00
  0.00000000E+00  0.27365854E+02  0.78086112E+01  0.50000000E+00  0.00000000E+00
  0.00000000E+00  0.27365854E+02  0.87846876E+01  0.50000000E+00  0.00000000E+00
  0.00000000E+00  0.27365854E+02  0.97607640E+01  0.50000000E+00  0.00000000E+00
  0.00000000E+00  0.27365854E+02  0.10736840E+02  0.50000000E+00  0.00000000E+00
  0.00000000E+00  0.27365854E+02  0.11712917E+02  0.50000000E+00  0.00000000E+00
  0.00000000E+00  0.27365854E+02  0.12688993E+02  0.50000000E+00  0.00000000E+00
  0.00000000E+00  0.27365854E+02  0.13665070E+02  0.50000000E+00  0.00000000E+00
  0.00000000E+00  0.27365854E+02  0.14641146E+02  0.50000000E+00  0.00000000E+00
  0.00000000E+00  0.27365854E+02  0.15617222E+02  0.50000000E+00  0.00000000E+00
  0.00000000E+00  0.27365854E+02  0.16593299E+02  0.50000000E+00  0.00000000E+00
  0.00000000E+00  0.27365854E+02  0.17569375E+02  0.50000000E+00  0.00000000E+00
  0.00000000E+00  0.27365854E+02  0.18545452E+02  0.50000000E+00  0.00000000E+00
  0.00000000E+00  0.27365854E+02  0.19521528E+02  0.50000000E+00  0.00000000E+00
  0.00000000E+00  0.27365854E+02  0.20497604E+02  0.49760308E+00 -0.58529935E-10
  0.00000000E+00  0.29853659E+02  0.00000000E+00  0.50000000E+00  0.00000000E+00
  0.00000000E+00  0.29853659E+02  0.97610548E+00  0.50000000E+00  0.00000000E+00
  0.00000000E+00  0.29853659E+02  0.19522110E+01  0.50000000E+00  0.00000000E+00
  0.00000000E+00  0.29853659E+02  0.29283164E+01  0.50000000E+00  0.00000000E+00
  0.00000000E+00  0.29853659E+02  0.39044219E+01  0.50000000E+00  0.00000000E+00
  0.00000000E+00  0.29853659E+02  0.48805274E+01  0.50000000E+00  0.00000000E+00
  0.00000000E+00  0.29853659E+02  0.58566329E+01  0.50000000E+00  0.00000000E+00
  0.00000000E+00  0.29853659E+02  0.68327384E+01  0.50000000E+00  0.00000000E+00
  0.00000000E+00  0.29853659E+02  0.78088439E+01  0.50000000E+00  0.00000000E+00
  0.00000000E+00  0.29853659E+02  0.87849493E+01  0.50000000E+00  0.00000000E+00
  0.00000000E+00  0.29853659E+02  0.97610548E+01  0.50000000E+00  0.00000000E+00
  0.00000000E+00  0.29853659E+02  0.10737160E+02  0.50000000E+00  0.00000000E+00
  0.00000000E+00  0.29853659E+02  0.11713266E+02  0.50000000E+00  0.00000000E+00
  0.00000000E+00  0.29853659E+02  0.12689371E+02  0.50000000E+00  0.00000000E+00
  0.00000000E+00  0.29853659E+02  0.13665477E+02  0.50000000E+00  0.00000000E+00
  0.00000000E+00  0.29853659E+02  0.14641582E+02  0.50000000E+00  0.00000000E+00
  0.00000000E+00  0.29853659E+02  0.15617688E+02  0.50000000E+00  0.00000000E+00
  0.00000000E+00  0.29853659E+02  0.16593793E+02  0.50000000E+00  0.00000000E+00
  0.00000000E+00  0.29853659E+02  0.17569899E+02  0.50000000E+00  0.00000000E+00
  0.00000000E+00  0.29853659E+02  0.18546004E+02  0.50000000E+00  0.00000000E+00
  0.00000000E+00  0.29853659E+02  0.19522110E+02  0.50000000E+00  0.00000000E+00
  0.00000000E+00  0.29853659E+02  0.20498215E+02  0.49821396E+00 -0.54884112E-10
  0.00000000E+00  0.32341463E+02  0.00000000E+00  0.50000000E+00  0.00000000E+00
  0.00000000E+00  0.32341463E+02  0.97613866E+00  0.50000000E+00  0.00000000E+00
  0.00000000E+00  0.32341463E+02  0.19522773E+01  0.50000000E+00  0.00000000E+00
  0.00000000E+00  0.32341463E+02  0.29284160E+01  0.50000000E+00  0.00000000E+00
  0.00000000E+00  0.32341463E+02  0.39045546E+01  0.50000000E+00  0.00000000E+00
  0.00000000E+00  0.32341463E+02  0.48806933E+01  0.50000000E+00  0.00000000E+00
  0.00000000E+00  0.32341463E+02  0.58568320E+01  0.50000000E+00  0.00000000E+00
  0.00000000E+00  0.32341463E+02  0.68329706E+01  0.50000000E+00  0.00000000E+00
  0.00000000E+00  0.32341463E+02  0.78091093E+01  0.50000000E+00  0.00000000E+00
  0.00000000E+00  0.32341463E+02  0.87852479E+01  0.50000000E+00  0.00000000E+00
  0.00000000E+00  0.32341463E+02  0.97613866E+01  0.50000000E+00  0.00000000E+00
  0.00000000E+00  0.32341463E+02  0.10737525E+02  0.50000000E+00  0.00000000E+00
  0.00000000E+00  0.32341463E+02  0.11713664E+02  0.50000000E+00  0.00000000E+00
  0.00000000E+00  0.32341463E+02  0.12689803E+02  0.50000000E+00  0.00000000E+00
  0.00000000E+00  0.32341463E+02  0.13665941E+02  0.50000000E+00  0.00000000E+00
  0.00000000E+00  0.32341463E+02  0.14642080E+02  0.50000000E+00  0.00000000E+00
  0.00000000E+00  0.32341463E+02  0.15618219E+02  0.50000000E+00  0.00000000E+00
  0.00000000E+00  0.32341463E+02  0.16594357E+02  0.50000000E+00  0.00000000E+00
  0.00000000E+00  0.32341463E+02  0.17570496E+02  0.50000000E+00  0.00000000E+00
  0.00000000E+00  0.32341463E+02  0.18546635E+02  0.50000000E+00  0.00000000E+00
  0.00000000E+00  0.32341463E+02  0.19522773E+02  0.50000000E+00  0.00000000E+00
  0.00000000E+00  0.32341463E+02  0.20498912E+02  0.49891098E+00 -0.43890236E-10
  0.00000000E+00  0.34829268E+02  0.00000000E+00  0.50000000E+00  0.00000000E+00
  0.00000000E+00  0.34829268E+02  0.97617015E+00  0.50000000E+00  0.00000000E+00
  0.00000000E+00  0.34829268E+02  0.19523403E+01  0.50000000E+00  0.00000000E+00
  0.00000000E+00  0.34829268E+02  0.29285104E+01  0.50000000E+00  0.00000000E+00
  0.00000000E+00  0.34829268E+02  0.39046806E+01  0.50000000E+00  0.00000000E+00
  0.00000000E+00  0.34829268E+02  0.48808507E+01  0.50000000E+00  0.00000000E+00
  0.00000000E+00  0.34829268E+02  0.58570209E+01  0.50000000E+00  0.00000000E+00
  0.00000000E+00  0.34829268E+02  0.68331910E+01  0.50000000E+00  0.00000000E+00
  0.00000000E+00  0.34829268E+02  0.78093612E+01  0.50000000E+00  0.00000000E+00
  0.00000000E+00  0.34829268E+02  0.87855313E+01  0.50000000E+00  0.00000000E+00
  0.00000000E+00  0.34829268E+02  0.97617015E+01  0.50000000E+00  0.00000000E+00
  0.00000000E+00  0.34829268E+02  0.10737872E+02  0.50000000E+00  0.00000000E+00
  0.00000000E+00  0.34829268E+02  0.11714042E+02  0.50000000E+00  0.00000000E+00
  0.00000000E+00  0.34829268E+02  0.12690212E+02  0.50000000E+00  0.00000000E+00
  0.00000000E+00  0.34829268E+02  0.13666382E+02  0.50000000E+00  0.00000000E+00
  0.00000000E+00  0.34829268E+02  0.14642552E+02  0.50000000E+00  0.00000000E+00
  0.00000000E+00  0.34829268E+02  0.15618722E+02  0.50000000E+00  0.00000000E+00
  0.00000000E+00  0.34829268E+02  0.16594892E+02  0.50000000E+00  0.00000000E+00
  0.00000000E+00  0.34829268E+02  0.17571063E+02  0.50000000E+00  0.00000000E+00
  0.00000000E+00  0.34829268E+02  0.18547233E+02  0.50000000E+00  0.00000000E+00
  0.00000000E+00  0.34829268E+02  0.19523403E+02  0.50000000E+00  0.00000000E+00
  0.00000000E+00  0.34829268E+02  0.20499573E+02  0.49957260E+00 -0.11002442E-10
  0.00000000E+00  0.37317073E+02  0.00000000E+00  0.50000000E+00  0.00000000E+00
  0.00000000E+00  0.37317073E+02  0.97617959E+00  0.50000000E+00  0.00000000E+00
  0.00000000E+00  0.37317073E+02  0.19523592E+01  0.50000000E+00  0.00000000E+00
  0.00000000E+00  0.37317073E+02  0.29285388E+01  0.50000000E+00  0.00000000E+00
  0.00000000E+00  0.37317073E+02  0.39047184E+01  0.50000000E+00  0.00000000E+00
  0.00000000E+00  0.37317073E+02  0.48808980E+01  0.50000000E+00  0.00000000E+00
  0.00000000E+00  0.37317073E+02  0.58570775E+01  0.50000000E+00  0.00000000E+00
  0.00000000E+00  0.37317073E+02  0.68332571E+01  0.50000000E+00  0.00000000E+00
  0.00000000E+00  0.37317073E+02  0.78094367E+01  0.50000000E+00  0.00000000E+00
  0.00000000E+00  0.37317073E+02  0.87856163E+01  0.50000000E+00  0.00000000E+00
  0.00000000E+00  0.37317073E+02  0.97617959E+01  0.50000000E+00  0.00000000E+00
  0.00000000E+00  0.37317073E+02  0.10737975E+02  0.50000000E+00  0.00000000E+00
  0.00000000E+00  0.37317073E+02  0.11714155E+02  0.50000000E+00  0.00000000E+00
  0.00000000E+00  0.37317073E+02  0.12690335E+02  0.50000000E+00  0.00000000E+00
  0.00000000E+00  0.37317073E+02  0.13666514E+02  0.50000000E+00  0.00000000E+00
  0.00000000E+00  0.37317073E+02  0.14642694E+02  0.50000000E+00  0.00000000E+00
  0.00000000E+00  0.37317073E+02  0.15618873E+02  0.50000000E+00  0.00000000E+00
  0.00000000E+00  0.37317073E+02  0.16595053E+02  0.50000000E+00  0.00000000E+00
  0.00000000E+00  0.37317073E+02  0.17571233E+02  0.50000000E+00  0.00000000E+00
  0.00000000E+00  0.37317073E+02  0.18547412E+02  0.50000000E+00  0.00000000E+00
  0.00000000E+00  0.37317073E+02  0.19523592E+02  0.50000000E+00  0.00000000E+00
  0.00000000E+00  0.37317073E+02  0.20499771E+02  0.49977116E+00  0.37195365E-10
  0.00000000E+00  0.39804878E+02  0.00000000E+00  0.50000000E+00  0.00000000E+00
  0.00000000E+00  0.39804878E+02  0.97617743E+00  0.50000000E+00  0.00000000E+00
  0.00000000E+00  0.39804878E+02  0.19523549E+01  0.50000000E+00  0.00000000E+00
  0.00000000E+00  0.39804878E+02  0.29285323E+01  0.50000000E+00  0.00000000E+00
  0.00000000E+00  0.39804878E+02  0.39047097E+01  0.50000000E+00  0.00000000E+00
  0.00000000E+00  0.39804878E+02  0.48808872E+01  0.50000000E+00  0.00000000E+00
  0.00000000E+00  0.39804878E+02  0.58570646E+01  0.50000000E+00  0.00000000E+00
  0.00000000E+00  0.39804878E+02  0.68332420E+01  0.50000000E+00  0.00000000E+00
  0.00000000E+00  0.39804878E+02  0.78094194E+01  0.50000000E+00  0.00000000E+00
  0.00000000E+00  0.39804878E+02  0.87855969E+01  0.50000000E+00  0.00000000E+00
  0.00000000E+00  0.39804878E+02  0.97617743E+01  0.50000000E+00  0.00000000E+00
  0.00000000E+00  0.39804878E+02  0.10737952E+02  0.50000000E+00  0.00000000E+00
  0.00000000E+00  0.39804878E+02  0.11714129E+02  0.50000000E+00  0.00000000E+00
  0.00000000E+00  0.39804878E+02  0.12690307E+02  0.50000000E+00  0.00000000E+00
  0.00000000E+00  0.39804878E+02  0.13666484E+02  0.50000000E+00  0.00000000E+00
  0.00000000E+00  0.39804878E+02  0.14642661E+02  0.50000000E+00  0.00000000E+00