          Title="3D head and conc at t=   0.5000E+04 days"
          variables="x","y","z","head","conc"
          zone i=      22, j=      42, k=      42, T="3D"
  0.00000000E+00  0.00000000E+00  0.00000000E+00  0.50000000E+00  0.00000000E+00
  0.00000000E+00  0.00000000E+00  0.97614407E+00  0.50000000E+00  0.00000000E+00
  0.00000000E+00  0.00000000E+00  0.19522881E+01  0.50000000E+00  0.00000000E+00
  0.00000000E+00  0.00000000E+00  0.29284322E+01  0.50000000E+00  0.00000000E+00
  0.00000000E+00  0.00000000E+00  0.39045763E+01  0.50000000E+00  0.00000000E+00
  0.00000000E+00  0.00000000E+00  0.48807203E+01  0.50000000E+00  0.00000000E+00
  0.00000000E+00  0.00000000E+00  0.58568644E+01  0.50000000E+00  0.00000000E+00
  0.00000000E+00  0.00000000E+00  0.68330085E+01  0.50000000E+00  0.00000000E+00
  0.00000000E+00  0.00000000E+00  0.78091525E+01  0.50000000E+00  0.00000000E+00
  0.00000000E+00  0.00000000E+00  0.87852966E+01  0.50000000E+00  0.00000000E+00
  0.00000000E+00  0.00000000E+00  0.97614407E+01  0.50000000E+00  0.00000000E+00
  0.00000000E+00  0.00000000E+00  0.10737585E+02  0.50000000E+00  0.00000000E+00
  0.00000000E+00  0.00000000E+00  0.11713729E+02  0.50000000E+00  0.00000000E+00
  0.00000000E+00  0.00000000E+00  0.12689873E+02  0.50000000E+00  0.00000000E+00
  0.00000000E+00  0.00000000E+00  0.13666017E+02  0.50000000E+00  0.00000000E+00
  0.00000000E+00  0.00000000E+00  0.14642161E+02  0.50000000E+00  0.00000000E+00
  0.00000000E+00  0.00000000E+00  0.15618305E+02  0.50000000E+00  0.00000000E+00
  0.00000000E+00  0.00000000E+00  0.16594449E+02  0.50000000E+00  0.00000000E+00
  0.00000000E+00  0.00000000E+00  0.17570593E+02  0.50000000E+00  0.00000000E+00
  0.00000000E+00  0.00000000E+00  0.18546737E+02  0.50000000E+00  0.00000000E+00
  0.00000000E+00  0.00000000E+00  0.19522881E+02  0.50000000E+00  0.00000000E+00
  0.00000000E+00  0.00000000E+00  0.20499025E+02  0.49902383E+00 -0.71823477E-09
  0.00000000E+00  0.24878049E+01  0.00000000E+00  0.50000000E+00  0.00000000E+00
  0.00000000E+00  0.24878049E+01  0.97614188E+00  0.50000000E+00  0.00000000E+00
  0.00000000E+00  0.24878049E+01  0.19522838E+01  0.50000000E+00  0.00000000E+00
  0.00000000E+00  0.24878049E+01  0.29284256E+01  0.50000000E+00  0.00000000E+00
  0.00000000E+00  0.24878049E+01  0.39045675E+01  0.50000000E+00  0.00000000E+00
  0.00000000E+00  0.24878049E+01  0.48807094E+01  0.50000000E+00  0.00000000E+00
  0.00000000E+00  0.24878049E+01  0.58568513E+01  0.50000000E+00  0.00000000E+00
  0.00000000E+00  0.24878049E+01  0.68329931E+01  0.50000000E+00  0.00000000E+00
  0.00000000E+00  0.24878049E+01  0.78091350E+01  0.50000000E+00  0.00000000E+00
  0.00000000E+00  0.24878049E+01  0.87852769E+01  0.50000000E+00  0.00000000E+00
  0.00000000E+00  0.24878049E+01  0.97614188E+01  0.50000000E+00  0.00000000E+00
  0.00000000E+00  0.24878049E+01  0.10737561E+02  0.50000000E+00  0.00000000E+00
  0.00000000E+00  0.24878049E+01  0.11713703E+02  0.50000000E+00  0.00000000E+00
  0.00000000E+00  0.24878049E+01  0.12689844E+02  0.50000000E+00  0.00000000E+00
  0.00000000E+00  0.24878049E+01  0.13665986E+02  0.50000000E+00  0.00000000E+00
  0.00000000E+00  0.24878049E+01  0.14642128E+02  0.50000000E+00  0.00000000E+00
  0.00000000E+00  0.24878049E+01  0.15618270E+02  0.50000000E+00  0.00000000E+00
  0.00000000E+00  0.24878049E+01  0.16594412E+02  0.50000000E+00  0.00000000E+00
  0.00000000E+00  0.24878049E+01  0.17570554E+02  0.50000000E+00  0.00000000E+00
  0.00000000E+00  0.24878049E+01  0.18546696E+02  0.50000000E+00  0.00000000E+00
  0.00000000E+00  0.24878049E+01  0.19522838E+02  0.50000000E+00  0.00000000E+00
  0.00000000E+00  0.24878049E+01  0.20498979E+02  0.49897797E+00 -0.55740475E-09
  0.00000000E+00  0.49756098E+01  0.00000000E+00  0.50000000E+00  0.00000000E+00
  0.00000000E+00  0.49756098E+01  0.97613767E+00  0.50000000E+00  0.00000000E+00
  0.00000000E+00  0.49756098E+01  0.19522753E+01  0.50000000E+00  0.00000000E+00
  0.00000000E+00  0.49756098E+01  0.29284130E+01  0.50000000E+00  0.00000000E+00
  0.00000000E+00  0.49756098E+01  0.39045507E+01  0.50000000E+00  0.00000000E+00
  0.00000000E+00  0.49756098E+01  0.48806883E+01  0.50000000E+00  0.00000000E+00
  0.00000000E+00  0.49756098E+01  0.58568260E+01  0.50000000E+00  0.00000000E+00
  0.00000000E+00  0.49756098E+01  0.68329637E+01  0.50000000E+00  0.00000000E+00
  0.00000000E+00  0.49756098E+01  0.78091014E+01  0.50000000E+00  0.00000000E+00
  0.00000000E+00  0.49756098E+01  0.87852390E+01  0.50000000E+00  0.00000000E+00
  0.00000000E+00  0.49756098E+01  0.97613767E+01  0.50000000E+00  0.00000000E+00
  0.00000000E+00  0.49756098E+01  0.10737514E+02  0.50000000E+00  0.00000000E+00
  0.00000000E+00  0.49756098E+01  0.11713652E+02  0.50000000E+00  0.00000000E+00
  0.00000000E+00  0.49756098E+01  0.12689790E+02  0.50000000E+00  0.00000000E+00
  0.00000000E+00  0.49756098E+01  0.13665927E+02  0.50000000E+00  0.00000000E+00
  0.00000000E+00  0.49756098E+01  0.14642065E+02  0.50000000E+00  0.00000000E+00
  0.00000000E+00  0.49756098E+01  0.15618203E+02  0.50000000E+00  0.00000000E+00
  0.00000000E+00  0.49756098E+01  0.16594340E+02  0.50000000E+00  0.00000000E+00
  0.00000000E+00  0.49756098E+01  0.17570478E+02  0.50000000E+00  0.00000000E+00
  0.00000000E+00  0.49756098E+01  0.18546616E+02  0.50000000E+00  0.00000000E+00
  0.00000000E+00  0.49756098E+01  0.19522753E+02  0.50000000E+00  0.00000000E+00
  0.00000000E+00  0.49756098E+01  0.20498891E+02  0.49888970E+00 -0.43439533E-09
  0.00000000E+00  0.74634146E+01  0.00000000E+00  0.50000000E+00  0.00000000E+00
  0.00000000E+00  0.74634146E+01  0.97612890E+00  0.50000000E+00  0.00000000E+00
  0.00000000E+00  0.74634146E+01  0.19522578E+01  0.50000000E+00  0.00000000E+00
  0.00000000E+00  0.74634146E+01  0.29283867E+01  0.50000000E+00  0.00000000E+00
  0.00000000E+00  0.74634146E+01  0.39045156E+01  0.50000000E+00  0.00000000E+00
  0.00000000E+00  0.74634146E+01  0.48806445E+01  0.50000000E+00  0.00000000E+00
  0.00000000E+00  0.74634146E+01  0.58567734E+01  0.50000000E+00  0.00000000E+00
  0.00000000E+00  0.74634146E+01  0.68329023E+01  0.50000000E+00  0.00000000E+00
  0.00000000E+00  0.74634146E+01  0.78090312E+01  0.50000000E+00  0.00000000E+00
  0.00000000E+00  0.74634146E+01  0.87851601E+01  0.50000000E+00  0.00000000E+00
  0.00000000E+00  0.74634146E+01  0.97612890E+01  0.50000000E+00  0.00000000E+00
  0.00000000E+00  0.74634146E+01  0.10737418E+02  0.50000000E+00  0.00000000E+00
  0.00000000E+00  0.74634146E+01  0.11713547E+02  0.50000000E+00  0.00000000E+00
  0.00000000E+00  0.74634146E+01  0.12689676E+02  0.50000000E+00  0.00000000E+00
  0.00000000E+00  0.74634146E+01  0.13665805E+02  0.50000000E+00  0.00000000E+00
  0.00000000E+00  0.74634146E+01  0.14641934E+02  0.50000000E+00  0.00000000E+00
  0.00000000E+00  0.74634146E+01  0.15618062E+02  0.50000000E+00  0.00000000E+00
  0.00000000E+00  0.74634146E+01  0.16594191E+02  0.50000000E+00  0.00000000E+00
  0.00000000E+00  0.74634146E+01  0.17570320E+02  0.50000000E+00  0.00000000E+00
  0.00000000E+00  0.74634146E+01  0.18546449E+02  0.50000000E+00  0.00000000E+00
  0.00000000E+00  0.74634146E+01  0.19522578E+02  0.50000000E+00  0.00000000E+00
  0.00000000E+00  0.74634146E+01  0.20498707E+02  0.49870559E+00 -0.32676284E-09
  0.00000000E+00  0.99512195E+01  0.00000000E+00  0.50000000E+00  0.00000000E+00
  0.00000000E+00  0.99512195E+01  0.97610403E+00  0.50000000E+00  0.00000000E+00
  0.00000000E+00  0.99512195E+01  0.19522081E+01  0.50000000E+00  0.00000000E+00
  0.00000000E+00  0.99512195E+01  0.29283121E+01  0.50000000E+00  0.00000000E+00
  0.00000000E+00  0.99512195E+01  0.39044161E+01  0.50000000E+00  0.00000000E+00
  0.00000000E+00  0.99512195E+01  0.48805202E+01  0.50000000E+00  0.00000000E+00
  0.00000000E+00  0.99512195E+01  0.58566242E+01  0.50000000E+00  0.00000000E+00
  0.00000000E+00  0.99512195E+01  0.68327282E+01  0.50000000E+00  0.00000000E+00
  0.00000000E+00  0.99512195E+01  0.78088323E+01  0.50000000E+00  0.00000000E+00
  0.00000000E+00  0.99512195E+01  0.87849363E+01  0.50000000E+00  0.00000000E+00
  0.00000000E+00  0.99512195E+01  0.97610403E+01  0.50000000E+00  0.00000000E+00
  0.00000000E+00  0.99512195E+01  0.10737144E+02  0.50000000E+00  0.00000000E+00
  0.00000000E+00  0.99512195E+01  0.11713248E+02  0.50000000E+00  0.00000000E+00
  0.00000000E+00  0.99512195E+01  0.12689352E+02  0.50000000E+00  0.00000000E+00
  0.00000000E+00  0.99512195E+01  0.13665456E+02  0.50000000E+00  0.00000000E+00
  0.00000000E+00  0.99512195E+01  0.14641560E+02  0.50000000E+00  0.00000000E+00
  0.00000000E+00  0.99512195E+01  0.15617665E+02  0.50000000E+00  0.00000000E+00
  0.00000000E+00  0.99512195E+01  0.16593769E+02  0.50000000E+00  0.00000000E+00
  0.00000000E+00  0.99512195E+01  0.17569873E+02  0.50000000E+00  0.00000000E+00
  0.00000000E+00  0.99512195E+01  0.18545977E+02  0.50000000E+00  0.00000000E+00
  0.00000000E+00  0.99512195E+01  0.19522081E+02  0.50000000E+00  0.00000000E+00
  0.00000000E+00  0.99512195E+01  0.20498185E+02  0.49818339E+00 -0.16398225E-09
  0.00000000E+00  0.12439024E+02  0.00000000E+00  0.50000000E+00  0.00000000E+00
  0.00000000E+00  0.12439024E+02  0.97609228E+00  0.50000000E+00  0.00000000E+00
  0.00000000E+00  0.12439024E+02  0.19521846E+01  0.50000000E+00  0.00000000E+00
  0.00000000E+00  0.12439024E+02  0.29282769E+01  0.50000000E+00  0.00000000E+00
  0.00000000E+00  0.12439024E+02  0.39043691E+01  0.50000000E+00  0.00000000E+00
  0.00000000E+00  0.12439024E+02  0.48804614E+01  0.50000000E+00  0.00000000E+00
  0.00000000E+00  0.12439024E+02  0.58565537E+01  0.50000000E+00  0.00000000E+00
  0.00000000E+00  0.12439024E+02  0.68326460E+01  0.50000000E+00  0.00000000E+00
  0.00000000E+00  0.12439024E+02  0.78087383E+01  0.50000000E+00  0.00000000E+00
  0.00000000E+00  0.12439024E+02  0.87848306E+01  0.50000000E+00  0.00000000E+00
  0.00000000E+00  0.12439024E+02  0.97609228E+01  0.50000000E+00  0.00000000E+00
  0.00000000E+00  0.12439024E+02  0.10737015E+02  0.50000000E+00  0.00000000E+00
  0.00000000E+00  0.12439024E+02  0.11713107E+02  0.50000000E+00  0.00000000E+00
  0.00000000E+00  0.12439024E+02  0.12689200E+02  0.50000000E+00  0.00000000E+00
  0.00000000E+00  0.12439024E+02  0.13665292E+02  0.50000000E+00  0.00000000E+00
  0.00000000E+00  0.12439024E+02  0.14641384E+02  0.50000000E+00  0.00000000E+00
  0.00000000E+00  0.12439024E+02  0.15617477E+02  0.50000000E+00  0.00000000E+00
  0.00000000E+00  0.12439024E+02  0.16593569E+02  0.50000000E+00  0.00000000E+00
  0.00000000E+00  0.12439024E+02  0.17569661E+02  0.50000000E+00  0.00000000E+00
  0.00000000E+00  0.12439024E+02  0.18545753E+02  0.50000000E+00  0.00000000E+00
  0.00000000E+00  0.12439024E+02  0.19521846E+02  0.50000000E+00  0.00000000E+00
  0.00000000E+00  0.12439024E+02  0.20497938E+02  0.49793667E+00 -0.11489127E-09
  0.00000000E+00  0.14926829E+02  0.00000000E+00  0.50000000E+00  0.00000000E+00
  0.00000000E+00  0.14926829E+02  0.97608749E+00  0.50000000E+00  0.00000000E+00
  0.00000000E+00  0.14926829E+02  0.19521750E+01  0.50000000E+00  0.00000000E+00
  0.00000000E+00  0.14926829E+02  0.29282625E+01  0.50000000E+00  0.00000000E+00
  0.00000000E+00  0.14926829E+02  0.39043500E+01  0.50000000E+00  0.00000000E+00
  0.00000000E+00  0.14926829E+02  0.48804375E+01  0.50000000E+00  0.00000000E+00
  0.00000000E+00  0.14926829E+02  0.58565249E+01  0.50000000E+00  0.00000000E+00
  0.00000000E+00  0.14926829E+02  0.68326124E+01  0.50000000E+00  0.00000000E+00
  0.00000000E+00  0.14926829E+02  0.78086999E+01  0.50000000E+00  0.00000000E+00
  0.00000000E+00  0.14926829E+02  0.87847874E+01  0.50000000E+00  0.00000000E+00
  0.00000000E+00  0.14926829E+02  0.97608749E+01  0.50000000E+00  0.00000000E+00
  0.00000000E+00  0.14926829E+02  0.10736962E+02  0.50000000E+00  0.00000000E+00
  0.00000000E+00  0.14926829E+02  0.11713050E+02  0.50000000E+00  0.00000000E+00
  0.00000000E+00  0.14926829E+02  0.12689137E+02  0.50000000E+00  0.00000000E+00
  0.00000000E+00  0.14926829E+02  0.13665225E+02  0.50000000E+00  0.00000000E+00
  0.00000000E+00  0.14926829E+02  0.14641312E+02  0.50000000E+00  0.00000000E+00
  0.00000000E+00  0.14926829E+02  0.15617400E+02  0.50000000E+00  0.00000000E+00
  0.00000000E+00  0.14926829E+02  0.16593487E+02  0.50000000E+00  0.00000000E+00
  0.00000000E+00  0.14926829E+02  0.17569575E+02  0.50000000E+00  0.00000000E+00
  0.00000000E+00  0.14926829E+02  0.18545662E+02  0.50000000E+00  0.00000000E+00
  0.00000000E+00  0.14926829E+02  0.19521750E+02  0.50000000E+00  0.00000000E+00
  0.00000000E+00  0.14926829E+02  0.20497837E+02  0.49783607E+00 -0.13203720E-09
  0.00000000E+00  0.17414634E+02  0.00000000E+00  0.50000000E+00  0.00000000E+00
  0.00000000E+00  0.17414634E+02  0.97606677E+00  0.50000000E+00  0.00000000E+00
  0.00000000E+00  0.17414634E+02  0.19521335E+01  0.50000000E+00  0.00000000E+00
  0.00000000E+00  0.17414634E+02  0.29282003E+01  0.50000000E+00  0.00000000E+00
  0.00000000E+00  0.17414634E+02  0.39042671E+01  0.50000000E+00  0.00000000E+00
  0.00000000E+00  0.17414634E+02  0.48803338E+01  0.50000000E+00  0.00000000E+00
  0.00000000E+00  0.17414634E+02  0.58564006E+01  0.50000000E+00  0.00000000E+00
  0.00000000E+00  0.17414634E+02  0.68324674E+01  0.50000000E+00  0.00000000E+00
  0.00000000E+00  0.17414634E+02  0.78085341E+01  0.50000000E+00  0.00000000E+00
  0.00000000E+00  0.17414634E+02  0.87846009E+01  0.50000000E+00  0.00000000E+00
  0.00000000E+00  0.17414634E+02  0.97606677E+01  0.50000000E+00  0.00000000E+00
  0.00000000E+00  0.17414634E+02  0.10736734E+02  0.50000000E+00  0.00000000E+00
  0.00000000E+00  0.17414634E+02  0.11712801E+02  0.50000000E+00  0.00000000E+00
  0.00000000E+00  0.17414634E+02  0.12688868E+02  0.50000000E+00  0.00000000E+00
  0.00000000E+00  0.17414634E+02  0.13664935E+02  0.50000000E+00  0.00000000E+00
  0.00000000E+00  0.17414634E+02  0.14641001E+02  0.50000000E+00  0.00000000E+00
  0.00000000E+00  0.17414634E+02  0.15617068E+02  0.50000000E+00  0.00000000E+00
  0.00000000E+00  0.17414634E+02  0.16593135E+02  0.50000000E+00  0.00000000E+00
  0.00000000E+00  0.17414634E+02  0.17569202E+02  0.50000000E+00  0.00000000E+00
  0.00000000E+00  0.17414634E+02  0.18545269E+02  0.50000000E+00  0.00000000E+00
  0.00000000E+00  0.17414634E+02  0.19521335E+02  0.50000000E+00  0.00000000E+00
  0.00000000E+00  0.17414634E+02  0.20497402E+02  0.49740076E+00 -0.11510631E-09
  0.00000000E+00  0.19902439E+02  0.00000000E+00  0.50000000E+00  0.00000000E+00
  0.00000000E+00  0.19902439E+02  0.97607229E+00  0.50000000E+00  0.00000000E+00
  0.00000000E+00  0.19902439E+02  0.19521446E+01  0.50000000E+00  0.00000000E+00
  0.00000000E+00  0.19902439E+02  0.29282169E+01  0.50000000E+00  0.00000000E+00
  0.00000000E+00  0.19902439E+02  0.39042892E+01  0.50000000E+00  0.00000000E+00
  0.00000000E+00  0.19902439E+02  0.48803614E+01  0.50000000E+00  0.00000000E+00
  0.00000000E+00  0.19902439E+02  0.58564337E+01  0.50000000E+00  0.00000000E+00
  0.00000000E+00  0.19902439E+02  0.68325060E+01  0.50000000E+00  0.00000000E+00
  0.00000000E+00  0.19902439E+02  0.78085783E+01  0.50000000E+00  0.00000000E+00
  0.00000000E+00  0.19902439E+02  0.87846506E+01  0.50000000E+00  0.00000000E+00
  0.00000000E+00  0.19902439E+02  0.97607229E+01  0.50000000E+00  0.00000000E+00
  0.00000000E+00  0.19902439E+02  0.10736795E+02  0.50000000E+00  0.00000000E+00
  0.00000000E+00  0.19902439E+02  0.11712867E+02  0.50000000E+00  0.00000000E+00
  0.00000000E+00  0.19902439E+02  0.12688940E+02  0.50000000E+00  0.00000000E+00
  0.00000000E+00  0.19902439E+02  0.13665012E+02  0.50000000E+00  0.00000000E+00
  0.00000000E+00  0.19902439E+02  0.14641084E+02  0.50000000E+00  0.00000000E+00
  0.00000000E+00  0.19902439E+02  0.15617157E+02  0.50000000E+00  0.00000000E+00
  0.00000000E+00  0.19902439E+02  0.16593229E+02  0.50000000E+00  0.00000000E+00
  0.00000000E+00  0.19902439E+02  0.17569301E+02  0.50000000E+00  0.00000000E+00
  0.00000000E+00  0.19902439E+02  0.18545373E+02  0.50000000E+00  0.00000000E+00
  0.00000000E+00  0.19902439E+02  0.19521446E+02  0.50000000E+00  0.00000000E+00
  0.00000000E+00  0.19902439E+02  0.20497518E+02  0.49751681E+00 -0.96133362E-10
  0.00000000E+00  0.22390244E+02  0.00000000E+00  0.50000000E+00  0.00000000E+00
  0.00000000E+00  0.22390244E+02  0.97608380E+00  0.50000000E+00  0.00000000E+00
  0.00000000E+00  0.22390244E+02  0.19521676E+01  0.50000000E+00  0.00000000E+00
  0.00000000E+00  0.22390244E+02  0.29282514E+01  0.50000000E+00  0.00000000E+00
  0.00000000E+00  0.22390244E+02  0.39043352E+01  0.50000000E+00  0.00000000E+00
  0.00000000E+00  0.22390244E+02  0.48804190E+01  0.50000000E+00  0.00000000E+00
  0.00000000E+00  0.22390244E+02  0.58565028E+01  0.50000000E+00  0.00000000E+00
  0.00000000E+00  0.22390244E+02  0.68325866E+01  0.50000000E+00  0.00000000E+00
  0.00000000E+00  0.22390244E+02  0.78086704E+01  0.50000000E+00  0.00000000E+00
  0.00000000E+00  0.22390244E+02  0.87847542E+01  0.50000000E+00  0.00000000E+00
  0.00000000E+00  0.22390244E+02  0.97608380E+01  0.50000000E+00  0.00000000E+00
  0.00000000E+00  0.22390244E+02  0.10736922E+02  0.50000000E+00  0.00000000E+00
  0.00000000E+00  0.22390244E+02  0.11713006E+02  0.50000000E+00  0.00000000E+00
  0.00000000E+00  0.22390244E+02  0.12689089E+02  0.50000000E+00  0.00000000E+00
  0.00000000E+00  0.22390244E+02  0.13665173E+02  0.50000000E+00  0.00000000E+00
  0.00000000E+00  0.22390244E+02  0.14641257E+02  0.50000000E+00  0.00000000E+00
  0.00000000E+00  0.22390244E+02  0.15617341E+02  0.50000000E+00  0.00000000E+00
  0.00000000E+00  0.22390244E+02  0.16593425E+02  0.50000000E+00  0.00000000E+00
  0.00000000E+00  0.22390244E+02  0.17569508E+02  0.50000000E+00  0.00000000E+00
  0.00000000E+00  0.22390244E+02  0.18545592E+02  0.50000000E+00  0.00000000E+00
  0.00000000E+00  0.22390244E+02  0.19521676E+02  0.50000000E+00  0.00000000E+00
  0.00000000E+00  0.22390244E+02  0.20497760E+02  0.49775848E+00 -0.85170883E-10
  0.00000000E+00  0.24878049E+02  0.00000000E+00  0.50000000E+00  0.00000000E+00
  0.00000000E+00  0.24878049E+02  0.97607391E+00  0.50000000E+00  0.00000000E+00
  0.00000000E+00  0.24878049E+02  0.19521478E+01  0.50000000E+00  0.00000000E+00
  0.00000000E+00  0.24878049E+02  0.29282217E+01  0.50000000E+00  0.00000000E+00
  0.00000000E+00  0.24878049E+02  0.39042956E+01  0.50000000E+00  0.00000000E+00
  0.00000000E+00  0.24878049E+02  0.48803696E+01  0.50000000E+00  0.00000000E+00
  0.00000000E+00  0.24878049E+02  0.58564435E+01  0.50000000E+00  0.00000000E+00
  0.00000000E+00  0.24878049E+02  0.68325174E+01  0.50000000E+00  0.00000000E+00
  0.00000000E+00  0.24878049E+02  0.78085913E+01  0.50000000E+00  0.00000000E+00
  0.00000000E+00  0.24878049E+02  0.87846652E+01  0.50000000E+00  0.00000000E+00
  0.00000000E+00  0.24878049E+02  0.97607391E+01  0.50000000E+00  0.00000000E+00
  0.00000000E+00  0.24878049E+02  0.10736813E+02  0.50000000E+00  0.00000000E+00
  0.00000000E+00  0.24878049E+02  0.11712887E+02  0.50000000E+00  0.00000000E+00
  0.00000000E+00  0.24878049E+02  0.12688961E+02  0.50000000E+00  0.00000000E+00
  0.00000000E+00  0.24878049E+02  0.13665035E+02  0.50000000E+00  0.00000000E+00
  0.00000000E+00  0.24878049E+02  0.14641109E+02  0.50000000E+00  0.00000000E+00
  0.00000000E+00  0.24878049E+02  0.15617183E+02  0.50000000E+00  0.00000000E+00
  0.00000000E+00  0.24878049E+02  0.16593256E+02  0.50000000E+00  0.00000000E+00
  0.00000000E+00  0.24878049E+02  0.17569330E+02  0.50000000E+00  0.00000000E+00
  0.00000000E+00  0.24878049E+02  0.18545404E+02  0.50000000E+00  0.00000000E+00
  0.00000000E+00  0.24878049E+02  0.19521478E+02  0.50000000E+00  0.00000000E+00
  0.00000000E+00  0.24878049E+02  0.20497552E+02  0.49755042E+00 -0.70346321E-10
  0.00000000E+00  0.27365854E+02  0.00000000E+00  0.50000000E+00  0.00000000E+00
  0.00000000E+00  0.27365854E+02  0.97607671E+00  0.50000000E+00  0.00000000E+00
  0.00000000E+00  0.27365854E+02  0.19521534E+01  0.50000000E+00  0.00000000E+00
  0.00000000E+00  0.27365854E+02  0.29282301E+01  0.50000000E+00  0.00000000E+00
  0.00000000E+00  0.27365854E+02  0.39043068E+01  0.50000000E+00  0.00000000E+00
  0.00000000E+00  0.27365854E+02  0.48803836E+01  0.50000000E+00  0.00000000E+00
  0.00000000E+00  0.27365854E+02  0.58564603E+01  0.50000000E+00  0.00000000E+00
  0.00000000E+00  0.27365854E+02  0.68325370E+01  0.50000000E+00  0.00000000E+00
  0.00000000E+00  0.27365854E+02  0.78086137E+01  0.50000000E+00  0.00000000E+00
  0.00000000E+00  0.27365854E+02  0.87846904E+01  0.50000000E+00  0.00000000E+00
  0.00000000E+00  0.27365854E+02  0.97607671E+01  0.50000000E+00  0.00000000E+00
  0.00000000E+00  0.27365854E+02  0.10736844E+02  0.50000000E+00  0.00000000E+00
  0.00000000E+00  0.27365854E+02  0.11712921E+02  0.50000000E+00  0.00000000E+00
  0.00000000E+00  0.27365854E+02  0.12688997E+02  0.50000000E+00  0.00000000E+00
  0.00000000E+00  0.27365854E+02  0.13665074E+02  0.50000000E+00  0.00000000E+00
  0.00000000E+00  0.27365854E+02  0.14641151E+02  0.50000000E+00  0.00000000E+00
  0.00000000E+00  0.27365854E+02  0.15617227E+02  0.50000000E+00  0.00000000E+00
  0.00000000E+00  0.27365854E+02  0.16593304E+02  0.50000000E+00  0.00000000E+00
  0.00000000E+00  0.27365854E+02  0.17569381E+02  0.50000000E+00  0.00000000E+00
  0.00000000E+00  0.27365854E+02  0.18545458E+02  0.50000000E+00  0.00000000E+00
  0.00000000E+00  0.27365854E+02  0.19521534E+02  0.50000000E+00  0.00000000E+00
  0.00000000E+00  0.27365854E+02  0.20497611E+02  0.49760920E+00 -0.59690061E-10
  0.00000000E+00  0.29853659E+02  0.00000000E+00  0.50000000E+00  0.00000000E+00
  0.00000000E+00  0.29853659E+02  0.97610567E+00  0.50000000E+00  0.00000000E+00
  0.00000000E+00  0.29853659E+02  0.19522113E+01  0.50000000E+00  0.00000000E+00
  0.00000000E+00  0.29853659E+02  0.29283170E+01  0.50000000E+00  0.00000000E+00
  0.00000000E+00  0.29853659E+02  0.39044227E+01  0.50000000E+00  0.00000000E+00
  0.00000000E+00  0.29853659E+02  0.48805284E+01  0.50000000E+00  0.00000000E+00
  0.00000000E+00  0.29853659E+02  0.58566340E+01  0.50000000E+00  0.00000000E+00
  0.00000000E+00  0.29853659E+02  0.68327397E+01  0.50000000E+00  0.00000000E+00
  0.00000000E+00  0.29853659E+02  0.78088454E+01  0.50000000E+00  0.00000000E+00
  0.00000000E+00  0.29853659E+02  0.87849511E+01  0.50000000E+00  0.00000000E+00
  0.00000000E+00  0.29853659E+02  0.97610567E+01  0.50000000E+00  0.00000000E+00
  0.00000000E+00  0.29853659E+02  0.10737162E+02  0.50000000E+00  0.00000000E+00
  0.00000000E+00  0.29853659E+02  0.11713268E+02  0.50000000E+00  0.00000000E+00
  0.00000000E+00  0.29853659E+02  0.12689374E+02  0.50000000E+00  0.00000000E+00
  0.00000000E+00  0.29853659E+02  0.13665479E+02  0.50000000E+00  0.00000000E+00
  0.00000000E+00  0.29853659E+02  0.14641585E+02  0.50000000E+00  0.00000000E+00
  0.00000000E+00  0.29853659E+02  0.15617691E+02  0.50000000E+00  0.00000000E+00
  0.00000000E+00  0.29853659E+02  0.16593796E+02  0.50000000E+00  0.00000000E+00
  0.00000000E+00  0.29853659E+02  0.17569902E+02  0.50000000E+00  0.00000000E+00
  0.00000000E+00  0.29853659E+02  0.18546008E+02  0.50000000E+00  0.00000000E+00
  0.00000000E+00  0.29853659E+02  0.19522113E+02  0.50000000E+00  0.00000000E+00
  0.00000000E+00  0.29853659E+02  0.20498219E+02  0.49821767E+00 -0.58075814E-10
  0.00000000E+00  0.32341463E+02  0.00000000E+00  0.50000000E+00  0.00000000E+00
  0.00000000E+00  0.32341463E+02  0.97613872E+00  0.50000000E+00  0.00000000E+00
  0.00000000E+00  0.32341463E+02  0.19522774E+01  0.50000000E+00  0.00000000E+00
  0.00000000E+00  0.32341463E+02  0.29284162E+01  0.50000000E+00  0.00000000E+00
  0.00000000E+00  0.32341463E+02  0.39045549E+01  0.50000000E+00  0.00000000E+00
  0.00000000E+00  0.32341463E+02  0.48806936E+01  0.50000000E+00  0.00000000E+00
  0.00000000E+00  0.32341463E+02  0.58568323E+01  0.50000000E+00  0.00000000E+00
  0.00000000E+00  0.32341463E+02  0.68329711E+01  0.50000000E+00  0.00000000E+00
  0.00000000E+00  0.32341463E+02  0.78091098E+01  0.50000000E+00  0.00000000E+00
  0.00000000E+00  0.32341463E+02  0.87852485E+01  0.50000000E+00  0.00000000E+00
  0.00000000E+00  0.32341463E+02  0.97613872E+01  0.50000000E+00  0.00000000E+00
  0.00000000E+00  0.32341463E+02  0.10737526E+02  0.50000000E+00  0.00000000E+00
  0.00000000E+00  0.32341463E+02  0.11713665E+02  0.50000000E+00  0.00000000E+00
  0.00000000E+00  0.32341463E+02  0.12689803E+02  0.50000000E+00  0.00000000E+00
  0.00000000E+00  0.32341463E+02  0.13665942E+02  0.50000000E+00  0.00000000E+00
  0.00000000E+00  0.32341463E+02  0.14642081E+02  0.50000000E+00  0.00000000E+00
  0.00000000E+00  0.32341463E+02  0.15618220E+02  0.50000000E+00  0.00000000E+00
  0.00000000E+00  0.32341463E+02  0.16594358E+02  0.50000000E+00  0.00000000E+00
  0.00000000E+00  0.32341463E+02  0.17570497E+02  0.50000000E+00  0.00000000E+00
  0.00000000E+00  0.32341463E+02  0.18546636E+02  0.50000000E+00  0.00000000E+00
  0.00000000E+00  0.32341463E+02  0.19522774E+02  0.50000000E+00  0.00000000E+00
  0.00000000E+00  0.32341463E+02  0.20498913E+02  0.49891211E+00 -0.48153251E-10
  0.00000000E+00  0.34829268E+02  0.00000000E+00  0.50000000E+00  0.00000000E+00
  0.00000000E+00  0.34829268E+02  0.97617016E+00  0.50000000E+00  0.00000000E+00
  0.00000000E+00  0.34829268E+02  0.19523403E+01  0.50000000E+00  0.00000000E+00
  0.00000000E+00  0.34829268E+02  0.29285105E+01  0.50000000E+00  0.00000000E+00
  0.00000000E+00  0.34829268E+02  0.39046807E+01  0.50000000E+00  0.00000000E+00
  0.00000000E+00  0.34829268E+02  0.48808508E+01  0.50000000E+00  0.00000000E+00
  0.00000000E+00  0.34829268E+02  0.58570210E+01  0.50000000E+00  0.00000000E+00
  0.00000000E+00  0.34829268E+02  0.68331911E+01  0.50000000E+00  0.00000000E+00
  0.00000000E+00  0.34829268E+02  0.78093613E+01  0.50000000E+00  0.00000000E+00
  0.00000000E+00  0.34829268E+02  0.87855315E+01  0.50000000E+00  0.00000000E+00
  0.00000000E+00  0.34829268E+02  0.97617016E+01  0.50000000E+00  0.00000000E+00
  0.00000000E+00  0.34829268E+02  0.10737872E+02  0.50000000E+00  0.00000000E+00
  0.00000000E+00  0.34829268E+02  0.11714042E+02  0.50000000E+00  0.00000000E+00
  0.00000000E+00  0.34829268E+02  0.12690212E+02  0.50000000E+00  0.00000000E+00
  0.00000000E+00  0.34829268E+02  0.13666382E+02  0.50000000E+00  0.00000000E+00
  0.00000000E+00  0.34829268E+02  0.14642552E+02  0.50000000E+00  0.00000000E+00
  0.00000000E+00  0.34829268E+02  0.15618723E+02  0.50000000E+00  0.00000000E+00
  0.00000000E+00  0.34829268E+02  0.16594893E+02  0.50000000E+00  0.00000000E+00
  0.00000000E+00  0.34829268E+02  0.17571063E+02  0.50000000E+00  0.00000000E+00
  0.00000000E+00  0.34829268E+02  0.18547233E+02  0.50000000E+00  0.00000000E+00
  0.00000000E+00  0.34829268E+02  0.19523403E+02  0.50000000E+00  0.00000000E+00
  0.00000000E+00  0.34829268E+02  0.20499573E+02  0.49957290E+00 -0.86178455E-11
  0.00000000E+00  0.37317073E+02  0.00000000E+00  0.50000000E+00  0.00000000E+00
  0.00000000E+00  0.37317073E+02  0.97617961E+00  0.50000000E+00  0.00000000E+00
  0.00000000E+00  0.37317073E+02  0.19523592E+01  0.50000000E+00  0.00000000E+00
  0.00000000E+00  0.37317073E+02  0.29285388E+01  0.50000000E+00  0.00000000E+00
  0.00000000E+00  0.37317073E+02  0.39047184E+01  0.50000000E+00  0.00000000E+00
  0.00000000E+00  0.37317073E+02  0.48808981E+01  0.50000000E+00  0.00000000E+00
  0.00000000E+00  0.37317073E+02  0.58570777E+01  0.50000000E+00  0.00000000E+00
  0.00000000E+00  0.37317073E+02  0.68332573E+01  0.50000000E+00  0.00000000E+00
  0.00000000E+00  0.37317073E+02  0.78094369E+01  0.50000000E+00  0.00000000E+00
  0.00000000E+00  0.37317073E+02  0.87856165E+01  0.50000000E+00  0.00000000E+00
  0.00000000E+00  0.37317073E+02  0.97617961E+01  0.50000000E+00  0.00000000E+00
  0.00000000E+00  0.37317073E+02  0.10737976E+02  0.50000000E+00  0.00000000E+00
  0.00000000E+00  0.37317073E+02  0.11714155E+02  0.50000000E+00  0.00000000E+00
  0.00000000E+00  0.37317073E+02  0.12690335E+02  0.50000000E+00  0.00000000E+00
  0.00000000E+00  0.37317073E+02  0.13666515E+02  0.50000000E+00  0.00000000E+00
  0.00000000E+00  0.37317073E+02  0.14642694E+02  0.50000000E+00  0.00000000E+00
  0.00000000E+00  0.37317073E+02  0.15618874E+02  0.50000000E+00  0.00000000E+00
  0.00000000E+00  0.37317073E+02  0.16595053E+02  0.50000000E+00  0.00000000E+00
  0.00000000E+00  0.37317073E+02  0.17571233E+02  0.50000000E+00  0.00000000E+00
  0.00000000E+00  0.37317073E+02  0.18547413E+02  0.50000000E+00  0.00000000E+00
  0.00000000E+00  0.37317073E+02  0.19523592E+02  0.50000000E+00  0.00000000E+00
  0.00000000E+00  0.37317073E+02  0.20499772E+02  0.49977156E+00  0.58340193E-10
  0.00000000E+00  0.39804878E+02  0.00000000E+00  0.50000000E+00  0.00000000E+00
  0.00000000E+00  0.39804878E+02  0.97617743E+00  0.50000000E+00  0.00000000E+00
  0.00000000E+00  0.39804878E+02  0.19523549E+01  0.50000000E+00  0.00000000E+00
  0.00000000E+00  0.39804878E+02  0.29285323E+01  0.50000000E+00  0.00000000E+00
  0.00000000E+00  0.39804878E+02  0.39047097E+01  0.50000000E+00  0.00000000E+00
  0.00000000E+00  0.39804878E+02  0.48808872E+01  0.50000000E+00  0.00000000E+00
  0.00000000E+00  0.39804878E+02  0.58570646E+01  0.50000000E+00  0.00000000E+00
  0.00000000E+00  0.39804878E+02  0.68332420E+01  0.50000000E+00  0.00000000E+00
  0.00000000E+00  0.39804878E+02  0.78094195E+01  0.50000000E+00  0.00000000E+00
  0.00000000E+00  0.39804878E+02  0.87855969E+01  0.50000000E+00  0.00000000E+00
  0.00000000E+00  0.39804878E+02  0.97617743E+01  0.50000000E+00  0.00000000E+00
  0.00000000E+00  0.39804878E+02  0.10737952E+02  0.50000000E+00  0.00000000E+00
  0.00000000E+00  0.39804878E+02  0.11714129E+02  0.50000000E+00  0.00000000E+00
  0.00000000E+00  0.39804878E+02  0.12690307E+02  0.50000000E+00  0.00000000E+00
  0.00000000E+00  0.39804878E+02  0.13666484E+02  0.50000000E+00  0.00000000E+00
  0.00000000E+00  0.39804878E+02  0.14642661E+02  0.50000000E+00  0.00000000E+00