title="2d K section "
variables="x","z","Kx","logKx","Kz","logKz","porosity"
zone i=    22, j=    42,T="Initial K at t=0"
   0.0000000E+00   0.0000000E+00   0.9450101E-04  -0.4024564E+01   0.9450101E-04  -0.4024564E+01   0.3000000E+00
   0.0000000E+00   0.9761905E+00   0.9891991E-04  -0.4004716E+01   0.9891991E-04  -0.4004716E+01   0.3000000E+00
   0.0000000E+00   0.1952381E+01   0.5429926E-04  -0.4265206E+01   0.5429926E-04  -0.4265206E+01   0.3000000E+00
   0.0000000E+00   0.2928571E+01   0.9641970E-04  -0.4015834E+01   0.9641970E-04  -0.4015834E+01   0.3000000E+00
   0.0000000E+00   0.3904762E+01   0.5333062E-04  -0.4273023E+01   0.5333062E-04  -0.4273023E+01   0.3000000E+00
   0.0000000E+00   0.4880952E+01   0.5300629E-04  -0.4275673E+01   0.5300629E-04  -0.4275673E+01   0.3000000E+00
   0.0000000E+00   0.5857143E+01   0.1318541E-04  -0.4879907E+01   0.1318541E-04  -0.4879907E+01   0.3000000E+00
   0.0000000E+00   0.6833333E+01   0.3703675E-04  -0.4431367E+01   0.3703675E-04  -0.4431367E+01   0.3000000E+00
   0.0000000E+00   0.7809524E+01   0.3179823E-04  -0.4497597E+01   0.3179823E-04  -0.4497597E+01   0.3000000E+00
   0.0000000E+00   0.8785714E+01   0.6176955E-04  -0.4209226E+01   0.6176955E-04  -0.4209226E+01   0.3000000E+00
   0.0000000E+00   0.9761905E+01   0.1499813E-03  -0.3823963E+01   0.1499813E-03  -0.3823963E+01   0.3000000E+00
   0.0000000E+00   0.1073810E+02   0.2649526E-07  -0.7576832E+01   0.2649526E-07  -0.7576832E+01   0.3000000E+00
   0.0000000E+00   0.1171429E+02   0.4336492E-08  -0.8362861E+01   0.4336492E-08  -0.8362861E+01   0.3000000E+00
   0.0000000E+00   0.1269048E+02   0.2759821E-08  -0.8559119E+01   0.2759821E-08  -0.8559119E+01   0.3000000E+00
   0.0000000E+00   0.1366667E+02   0.9853739E-09  -0.9006399E+01   0.9853739E-09  -0.9006399E+01   0.3000000E+00
   0.0000000E+00   0.1464286E+02   0.2347770E-08  -0.8629344E+01   0.2347770E-08  -0.8629344E+01   0.3000000E+00
   0.0000000E+00   0.1561905E+02   0.7452321E-04  -0.4127708E+01   0.7452321E-04  -0.4127708E+01   0.3000000E+00
   0.0000000E+00   0.1659524E+02   0.2526729E-04  -0.4597441E+01   0.2526729E-04  -0.4597441E+01   0.3000000E+00
   0.0000000E+00   0.1757143E+02   0.1427929E-04  -0.4845293E+01   0.1427929E-04  -0.4845293E+01   0.3000000E+00
   0.0000000E+00   0.1854762E+02   0.1462614E-04  -0.4834870E+01   0.1462614E-04  -0.4834870E+01   0.3000000E+00
   0.0000000E+00   0.1952381E+02   0.3013570E-04  -0.4520919E+01   0.3013570E-04  -0.4520919E+01   0.3000000E+00
   0.0000000E+00   0.2050000E+02   0.3013570E-04  -0.4520919E+01   0.3013570E-04  -0.4520919E+01   0.3000000E+00
   0.2487805E+01   0.0000000E+00   0.8924725E-04  -0.4049405E+01   0.8924725E-04  -0.4049405E+01   0.3000000E+00
   0.2487805E+01   0.9761905E+00   0.9659341E-04  -0.4015052E+01   0.9659341E-04  -0.4015052E+01   0.3000000E+00
   0.2487805E+01   0.1952381E+01   0.1120237E-03  -0.3950690E+01   0.1120237E-03  -0.3950690E+01   0.3000000E+00
   0.2487805E+01   0.2928571E+01   0.8080271E-04  -0.4092574E+01   0.8080271E-04  -0.4092574E+01   0.3000000E+00
   0.2487805E+01   0.3904762E+01   0.6474850E-04  -0.4188770E+01   0.6474850E-04  -0.4188770E+01   0.3000000E+00
   0.2487805E+01   0.4880952E+01   0.9110345E-05  -0.5040465E+01   0.9110345E-05  -0.5040465E+01   0.3000000E+00
   0.2487805E+01   0.5857143E+01   0.1848040E-04  -0.4733289E+01   0.1848040E-04  -0.4733289E+01   0.3000000E+00
   0.2487805E+01   0.6833333E+01   0.1313408E-04  -0.4881600E+01   0.1313408E-04  -0.4881600E+01   0.3000000E+00
   0.2487805E+01   0.7809524E+01   0.2125752E-04  -0.4672487E+01   0.2125752E-04  -0.4672487E+01   0.3000000E+00
   0.2487805E+01   0.8785714E+01   0.7243652E-04  -0.4140042E+01   0.7243652E-04  -0.4140042E+01   0.3000000E+00
   0.2487805E+01   0.9761905E+01   0.1181566E-03  -0.3927542E+01   0.1181566E-03  -0.3927542E+01   0.3000000E+00
   0.2487805E+01   0.1073810E+02   0.1294832E-07  -0.7887787E+01   0.1294832E-07  -0.7887787E+01   0.3000000E+00
   0.2487805E+01   0.1171429E+02   0.3476986E-08  -0.8458797E+01   0.3476986E-08  -0.8458797E+01   0.3000000E+00
   0.2487805E+01   0.1269048E+02   0.1404478E-08  -0.8852485E+01   0.1404478E-08  -0.8852485E+01   0.3000000E+00
   0.2487805E+01   0.1366667E+02   0.1684158E-08  -0.8773617E+01   0.1684158E-08  -0.8773617E+01   0.3000000E+00
   0.2487805E+01   0.1464286E+02   0.1512011E-03  -0.3820445E+01   0.1512011E-03  -0.3820445E+01   0.3000000E+00
   0.2487805E+01   0.1561905E+02   0.2484883E-04  -0.4604694E+01   0.2484883E-04  -0.4604694E+01   0.3000000E+00
   0.2487805E+01   0.1659524E+02   0.4306436E-05  -0.5365882E+01   0.4306436E-05  -0.5365882E+01   0.3000000E+00
   0.2487805E+01   0.1757143E+02   0.5562294E-05  -0.5254746E+01   0.5562294E-05  -0.5254746E+01   0.3000000E+00
   0.2487805E+01   0.1854762E+02   0.5262523E-05  -0.5278806E+01   0.5262523E-05  -0.5278806E+01   0.3000000E+00
   0.2487805E+01   0.1952381E+02   0.1138857E-04  -0.4943531E+01   0.1138857E-04  -0.4943531E+01   0.3000000E+00
   0.2487805E+01   0.2050000E+02   0.1138857E-04  -0.4943531E+01   0.1138857E-04  -0.4943531E+01   0.3000000E+00
   0.4975610E+01   0.0000000E+00   0.6349814E-04  -0.4197239E+01   0.6349814E-04  -0.4197239E+01   0.3000000E+00
   0.4975610E+01   0.9761905E+00   0.5464789E-04  -0.4262427E+01   0.5464789E-04  -0.4262427E+01   0.3000000E+00
   0.4975610E+01   0.1952381E+01   0.5216494E-04  -0.4282621E+01   0.5216494E-04  -0.4282621E+01   0.3000000E+00
   0.4975610E+01   0.2928571E+01   0.1159560E-03  -0.3935707E+01   0.1159560E-03  -0.3935707E+01   0.3000000E+00
   0.4975610E+01   0.3904762E+01   0.4621528E-04  -0.4335214E+01   0.4621528E-04  -0.4335214E+01   0.3000000E+00
   0.4975610E+01   0.4880952E+01   0.2699389E-04  -0.4568735E+01   0.2699389E-04  -0.4568735E+01   0.3000000E+00
   0.4975610E+01   0.5857143E+01   0.1828188E-04  -0.4737979E+01   0.1828188E-04  -0.4737979E+01   0.3000000E+00
   0.4975610E+01   0.6833333E+01   0.2146686E-04  -0.4668231E+01   0.2146686E-04  -0.4668231E+01   0.3000000E+00
   0.4975610E+01   0.7809524E+01   0.8339685E-04  -0.4078850E+01   0.8339685E-04  -0.4078850E+01   0.3000000E+00
   0.4975610E+01   0.8785714E+01   0.7995872E-04  -0.4097134E+01   0.7995872E-04  -0.4097134E+01   0.3000000E+00
   0.4975610E+01   0.9761905E+01   0.7101638E-04  -0.4148641E+01   0.7101638E-04  -0.4148641E+01   0.3000000E+00
   0.4975610E+01   0.1073810E+02   0.1390921E-08  -0.8856698E+01   0.1390921E-08  -0.8856698E+01   0.3000000E+00
   0.4975610E+01   0.1171429E+02   0.1060951E-08  -0.8974305E+01   0.1060951E-08  -0.8974305E+01   0.3000000E+00
   0.4975610E+01   0.1269048E+02   0.7704857E-09  -0.9113235E+01   0.7704857E-09  -0.9113235E+01   0.3000000E+00
   0.4975610E+01   0.1366667E+02   0.1504959E-08  -0.8822475E+01   0.1504959E-08  -0.8822475E+01   0.3000000E+00
   0.4975610E+01   0.1464286E+02   0.3404934E-04  -0.4467891E+01   0.3404934E-04  -0.4467891E+01   0.3000000E+00
   0.4975610E+01   0.1561905E+02   0.3363982E-04  -0.4473146E+01   0.3363982E-04  -0.4473146E+01   0.3000000E+00
   0.4975610E+01   0.1659524E+02   0.1414287E-04  -0.4849462E+01   0.1414287E-04  -0.4849462E+01   0.3000000E+00
   0.4975610E+01   0.1757143E+02   0.6860021E-05  -0.5163675E+01   0.6860021E-05  -0.5163675E+01   0.3000000E+00
   0.4975610E+01   0.1854762E+02   0.1174128E-04  -0.4930285E+01   0.1174128E-04  -0.4930285E+01   0.3000000E+00
   0.4975610E+01   0.1952381E+02   0.1458671E-04  -0.4836043E+01   0.1458671E-04  -0.4836043E+01   0.3000000E+00
   0.4975610E+01   0.2050000E+02   0.1458671E-04  -0.4836043E+01   0.1458671E-04  -0.4836043E+01   0.3000000E+00
   0.7463415E+01   0.0000000E+00   0.3305955E-04  -0.4480703E+01   0.3305955E-04  -0.4480703E+01   0.3000000E+00
   0.7463415E+01   0.9761905E+00   0.8473346E-04  -0.4071945E+01   0.8473346E-04  -0.4071945E+01   0.3000000E+00
   0.7463415E+01   0.1952381E+01   0.5746124E-04  -0.4240625E+01   0.5746124E-04  -0.4240625E+01   0.3000000E+00
   0.7463415E+01   0.2928571E+01   0.7258879E-04  -0.4139130E+01   0.7258879E-04  -0.4139130E+01   0.3000000E+00
   0.7463415E+01   0.3904762E+01   0.4938815E-04  -0.4306377E+01   0.4938815E-04  -0.4306377E+01   0.3000000E+00
   0.7463415E+01   0.4880952E+01   0.2685657E-04  -0.4570949E+01   0.2685657E-04  -0.4570949E+01   0.3000000E+00
   0.7463415E+01   0.5857143E+01   0.4384280E-04  -0.4358102E+01   0.4384280E-04  -0.4358102E+01   0.3000000E+00
   0.7463415E+01   0.6833333E+01   0.5408249E-04  -0.4266943E+01   0.5408249E-04  -0.4266943E+01   0.3000000E+00
   0.7463415E+01   0.7809524E+01   0.1085174E-03  -0.3964501E+01   0.1085174E-03  -0.3964501E+01   0.3000000E+00
   0.7463415E+01   0.8785714E+01   0.1162927E-03  -0.3934447E+01   0.1162927E-03  -0.3934447E+01   0.3000000E+00
   0.7463415E+01   0.9761905E+01   0.7444127E-04  -0.4128186E+01   0.7444127E-04  -0.4128186E+01   0.3000000E+00
   0.7463415E+01   0.1073810E+02   0.1400411E-08  -0.8853744E+01   0.1400411E-08  -0.8853744E+01   0.3000000E+00
   0.7463415E+01   0.1171429E+02   0.1855522E-08  -0.8731534E+01   0.1855522E-08  -0.8731534E+01   0.3000000E+00
   0.7463415E+01   0.1269048E+02   0.4686874E-08  -0.8329117E+01   0.4686874E-08  -0.8329117E+01   0.3000000E+00
   0.7463415E+01   0.1366667E+02   0.6760290E-08  -0.8170035E+01   0.6760290E-08  -0.8170035E+01   0.3000000E+00
   0.7463415E+01   0.1464286E+02   0.1985410E-04  -0.4702150E+01   0.1985410E-04  -0.4702150E+01   0.3000000E+00
   0.7463415E+01   0.1561905E+02   0.3550631E-04  -0.4449694E+01   0.3550631E-04  -0.4449694E+01   0.3000000E+00
   0.7463415E+01   0.1659524E+02   0.3505473E-04  -0.4455253E+01   0.3505473E-04  -0.4455253E+01   0.3000000E+00
   0.7463415E+01   0.1757143E+02   0.1957808E-04  -0.4708230E+01   0.1957808E-04  -0.4708230E+01   0.3000000E+00
   0.7463415E+01   0.1854762E+02   0.1674183E-04  -0.4776197E+01   0.1674183E-04  -0.4776197E+01   0.3000000E+00
   0.7463415E+01   0.1952381E+02   0.1249228E-04  -0.4903358E+01   0.1249228E-04  -0.4903358E+01   0.3000000E+00
   0.7463415E+01   0.2050000E+02   0.1249228E-04  -0.4903358E+01   0.1249228E-04  -0.4903358E+01   0.3000000E+00
   0.9951220E+01   0.0000000E+00   0.2133845E-04  -0.4670837E+01   0.2133845E-04  -0.4670837E+01   0.3000000E+00
   0.9951220E+01   0.9761905E+00   0.6346005E-04  -0.4197500E+01   0.6346005E-04  -0.4197500E+01   0.3000000E+00
   0.9951220E+01   0.1952381E+01   0.5206071E-04  -0.4283490E+01   0.5206071E-04  -0.4283490E+01   0.3000000E+00
   0.9951220E+01   0.2928571E+01   0.6089253E-04  -0.4215436E+01   0.6089253E-04  -0.4215436E+01   0.3000000E+00
   0.9951220E+01   0.3904762E+01   0.6328261E-04  -0.4198716E+01   0.6328261E-04  -0.4198716E+01   0.3000000E+00
   0.9951220E+01   0.4880952E+01   0.3028070E-04  -0.4518834E+01   0.3028070E-04  -0.4518834E+01   0.3000000E+00
   0.9951220E+01   0.5857143E+01   0.2548552E-04  -0.4593706E+01   0.2548552E-04  -0.4593706E+01   0.3000000E+00
   0.9951220E+01   0.6833333E+01   0.4570513E-04  -0.4340035E+01   0.4570513E-04  -0.4340035E+01   0.3000000E+00
   0.9951220E+01   0.7809524E+01   0.5692932E-04  -0.4244664E+01   0.5692932E-04  -0.4244664E+01   0.3000000E+00
   0.9951220E+01   0.8785714E+01   0.1482367E-03  -0.3829044E+01   0.1482367E-03  -0.3829044E+01   0.3000000E+00
   0.9951220E+01   0.9761905E+01   0.4654923E-04  -0.4332087E+01   0.4654923E-04  -0.4332087E+01   0.3000000E+00
   0.9951220E+01   0.1073810E+02   0.1384399E-08  -0.8858739E+01   0.1384399E-08  -0.8858739E+01   0.3000000E+00
   0.9951220E+01   0.1171429E+02   0.9967859E-08  -0.8001398E+01   0.9967859E-08  -0.8001398E+01   0.3000000E+00
   0.9951220E+01   0.1269048E+02   0.1115029E-07  -0.7952714E+01   0.1115029E-07  -0.7952714E+01   0.3000000E+00
   0.9951220E+01   0.1366667E+02   0.1487476E-07  -0.7827550E+01   0.1487476E-07  -0.7827550E+01   0.3000000E+00
   0.9951220E+01   0.1464286E+02   0.3392698E-04  -0.4469455E+01   0.3392698E-04  -0.4469455E+01   0.3000000E+00
   0.9951220E+01   0.1561905E+02   0.2731704E-04  -0.4563566E+01   0.2731704E-04  -0.4563566E+01   0.3000000E+00
   0.9951220E+01   0.1659524E+02   0.2042400E-04  -0.4689859E+01   0.2042400E-04  -0.4689859E+01   0.3000000E+00
   0.9951220E+01   0.1757143E+02   0.2751168E-04  -0.4560483E+01   0.2751168E-04  -0.4560483E+01   0.3000000E+00
   0.9951220E+01   0.1854762E+02   0.2804220E-04  -0.4552188E+01   0.2804220E-04  -0.4552188E+01   0.3000000E+00
   0.9951220E+01   0.1952381E+02   0.2308794E-04  -0.4636615E+01   0.2308794E-04  -0.4636615E+01   0.3000000E+00
   0.9951220E+01   0.2050000E+02   0.2308794E-04  -0.4636615E+01   0.2308794E-04  -0.4636615E+01   0.3000000E+00
   0.1243902E+02   0.0000000E+00   0.2990754E-04  -0.4524219E+01   0.2990754E-04  -0.4524219E+01   0.3000000E+00
   0.1243902E+02   0.9761905E+00   0.6272189E-04  -0.4202581E+01   0.6272189E-04  -0.4202581E+01   0.3000000E+00
   0.1243902E+02   0.1952381E+01   0.3914648E-04  -0.4407307E+01   0.3914648E-04  -0.4407307E+01   0.3000000E+00
   0.1243902E+02   0.2928571E+01   0.1163276E-03  -0.3934317E+01   0.1163276E-03  -0.3934317E+01   0.3000000E+00
   0.1243902E+02   0.3904762E+01   0.7159395E-04  -0.4145124E+01   0.7159395E-04  -0.4145124E+01   0.3000000E+00
   0.1243902E+02   0.4880952E+01   0.2046693E-04  -0.4688947E+01   0.2046693E-04  -0.4688947E+01   0.3000000E+00
   0.1243902E+02   0.5857143E+01   0.3369706E-04  -0.4472408E+01   0.3369706E-04  -0.4472408E+01   0.3000000E+00
   0.1243902E+02   0.6833333E+01   0.2926846E-04  -0.4533600E+01   0.2926846E-04  -0.4533600E+01   0.3000000E+00
   0.1243902E+02   0.7809524E+01   0.3593136E-04  -0.4444526E+01   0.3593136E-04  -0.4444526E+01   0.3000000E+00
   0.1243902E+02   0.8785714E+01   0.2625117E-04  -0.4580851E+01   0.2625117E-04  -0.4580851E+01   0.3000000E+00
   0.1243902E+02   0.9761905E+01   0.5221191E-04  -0.4282230E+01   0.5221191E-04  -0.4282230E+01   0.3000000E+00
   0.1243902E+02   0.1073810E+02   0.2798212E-07  -0.7553119E+01   0.2798212E-07  -0.7553119E+01   0.3000000E+00
   0.1243902E+02   0.1171429E+02   0.1836352E-07  -0.7736044E+01   0.1836352E-07  -0.7736044E+01   0.3000000E+00
   0.1243902E+02   0.1269048E+02   0.8082214E-08  -0.8092470E+01   0.8082214E-08  -0.8092470E+01   0.3000000E+00
   0.1243902E+02   0.1366667E+02   0.6956426E-08  -0.8157614E+01   0.6956426E-08  -0.8157614E+01   0.3000000E+00
   0.1243902E+02   0.1464286E+02   0.6924220E-04  -0.4159629E+01   0.6924220E-04  -0.4159629E+01   0.3000000E+00
   0.1243902E+02   0.1561905E+02   0.6368255E-04  -0.4195980E+01   0.6368255E-04  -0.4195980E+01   0.3000000E+00
   0.1243902E+02   0.1659524E+02   0.6413630E-04  -0.4192896E+01   0.6413630E-04  -0.4192896E+01   0.3000000E+00
   0.1243902E+02   0.1757143E+02   0.3285850E-04  -0.4483352E+01   0.3285850E-04  -0.4483352E+01   0.3000000E+00
   0.1243902E+02   0.1854762E+02   0.2862872E-04  -0.4543198E+01   0.2862872E-04  -0.4543198E+01   0.3000000E+00
   0.1243902E+02   0.1952381E+02   0.1694056E-04  -0.4771072E+01   0.1694056E-04  -0.4771072E+01   0.3000000E+00
   0.1243902E+02   0.2050000E+02   0.1694056E-04  -0.4771072E+01   0.1694056E-04  -0.4771072E+01   0.3000000E+00
   0.1492683E+02   0.0000000E+00   0.3210496E-04  -0.4493428E+01   0.3210496E-04  -0.4493428E+01   0.3000000E+00
   0.1492683E+02   0.9761905E+00   0.7317183E-04  -0.4135656E+01   0.7317183E-04  -0.4135656E+01   0.3000000E+00
   0.1492683E+02   0.1952381E+01   0.6151066E-04  -0.4211050E+01   0.6151066E-04  -0.4211050E+01   0.3000000E+00
   0.1492683E+02   0.2928571E+01   0.3835982E-04  -0.4416123E+01   0.3835982E-04  -0.4416123E+01   0.3000000E+00
   0.1492683E+02   0.3904762E+01   0.2512870E-04  -0.4599830E+01   0.2512870E-04  -0.4599830E+01   0.3000000E+00
   0.1492683E+02   0.4880952E+01   0.3430567E-04  -0.4464634E+01   0.3430567E-04  -0.4464634E+01   0.3000000E+00
   0.1492683E+02   0.5857143E+01   0.4100978E-04  -0.4387113E+01   0.4100978E-04  -0.4387113E+01   0.3000000E+00
   0.1492683E+02   0.6833333E+01   0.3770190E-04  -0.4423637E+01   0.3770190E-04  -0.4423637E+01   0.3000000E+00
   0.1492683E+02   0.7809524E+01   0.4065861E-04  -0.4390848E+01   0.4065861E-04  -0.4390848E+01   0.3000000E+00
   0.1492683E+02   0.8785714E+01   0.1636280E-04  -0.4786142E+01   0.1636280E-04  -0.4786142E+01   0.3000000E+00
   0.1492683E+02   0.9761905E+01   0.3210817E-04  -0.4493384E+01   0.3210817E-04  -0.4493384E+01   0.3000000E+00
   0.1492683E+02   0.1073810E+02   0.5609607E-07  -0.7251068E+01   0.5609607E-07  -0.7251068E+01   0.3000000E+00
   0.1492683E+02   0.1171429E+02   0.9999807E-08  -0.8000008E+01   0.9999807E-08  -0.8000008E+01   0.3000000E+00
   0.1492683E+02   0.1269048E+02   0.2459556E-07  -0.7609143E+01   0.2459556E-07  -0.7609143E+01   0.3000000E+00
   0.1492683E+02   0.1366667E+02   0.1607501E-07  -0.7793849E+01   0.1607501E-07  -0.7793849E+01   0.3000000E+00
   0.1492683E+02   0.1464286E+02   0.6167080E-04  -0.4209920E+01   0.6167080E-04  -0.4209920E+01   0.3000000E+00
   0.1492683E+02   0.1561905E+02   0.7401077E-04  -0.4130705E+01   0.7401077E-04  -0.4130705E+01   0.3000000E+00
   0.1492683E+02   0.1659524E+02   0.6185609E-04  -0.4208618E+01   0.6185609E-04  -0.4208618E+01   0.3000000E+00
   0.1492683E+02   0.1757143E+02   0.1960355E-04  -0.4707665E+01   0.1960355E-04  -0.4707665E+01   0.3000000E+00
   0.1492683E+02   0.1854762E+02   0.2548297E-04  -0.4593750E+01   0.2548297E-04  -0.4593750E+01   0.3000000E+00
   0.1492683E+02   0.1952381E+02   0.1005440E-04  -0.4997644E+01   0.1005440E-04  -0.4997644E+01   0.3000000E+00
   0.1492683E+02   0.2050000E+02   0.1005440E-04  -0.4997644E+01   0.1005440E-04  -0.4997644E+01   0.3000000E+00
   0.1741463E+02   0.0000000E+00   0.3479280E-04  -0.4458511E+01   0.3479280E-04  -0.4458511E+01   0.3000000E+00
   0.1741463E+02   0.9761905E+00   0.3819141E-04  -0.4418034E+01   0.3819141E-04  -0.4418034E+01   0.3000000E+00
   0.1741463E+02   0.1952381E+01   0.6598389E-04  -0.4180562E+01   0.6598389E-04  -0.4180562E+01   0.3000000E+00
   0.1741463E+02   0.2928571E+01   0.4659115E-04  -0.4331697E+01   0.4659115E-04  -0.4331697E+01   0.3000000E+00
   0.1741463E+02   0.3904762E+01   0.2086787E-04  -0.4680522E+01   0.2086787E-04  -0.4680522E+01   0.3000000E+00
   0.1741463E+02   0.4880952E+01   0.2538378E-04  -0.4595444E+01   0.2538378E-04  -0.4595444E+01   0.3000000E+00
   0.1741463E+02   0.5857143E+01   0.4760370E-04  -0.4322359E+01   0.4760370E-04  -0.4322359E+01   0.3000000E+00
   0.1741463E+02   0.6833333E+01   0.2078248E-04  -0.4682303E+01   0.2078248E-04  -0.4682303E+01   0.3000000E+00
   0.1741463E+02   0.7809524E+01   0.2302569E-04  -0.4637787E+01   0.2302569E-04  -0.4637787E+01   0.3000000E+00
   0.1741463E+02   0.8785714E+01   0.1969984E-04  -0.4705537E+01   0.1969984E-04  -0.4705537E+01   0.3000000E+00
   0.1741463E+02   0.9761905E+01   0.1398535E-04  -0.4854327E+01   0.1398535E-04  -0.4854327E+01   0.3000000E+00
   0.1741463E+02   0.1073810E+02   0.1669786E-06  -0.6777339E+01   0.1669786E-06  -0.6777339E+01   0.3000000E+00
   0.1741463E+02   0.1171429E+02   0.8423124E-07  -0.7074527E+01   0.8423124E-07  -0.7074527E+01   0.3000000E+00
   0.1741463E+02   0.1269048E+02   0.1088277E-06  -0.6963261E+01   0.1088277E-06  -0.6963261E+01   0.3000000E+00
   0.1741463E+02   0.1366667E+02   0.1373546E-06  -0.6862157E+01   0.1373546E-06  -0.6862157E+01   0.3000000E+00
   0.1741463E+02   0.1464286E+02   0.1098934E-03  -0.3959028E+01   0.1098934E-03  -0.3959028E+01   0.3000000E+00
   0.1741463E+02   0.1561905E+02   0.4980476E-04  -0.4302729E+01   0.4980476E-04  -0.4302729E+01   0.3000000E+00
   0.1741463E+02   0.1659524E+02   0.2263983E-04  -0.4645127E+01   0.2263983E-04  -0.4645127E+01   0.3000000E+00
   0.1741463E+02   0.1757143E+02   0.1935616E-04  -0.4713181E+01   0.1935616E-04  -0.4713181E+01   0.3000000E+00
   0.1741463E+02   0.1854762E+02   0.1572435E-04  -0.4803427E+01   0.1572435E-04  -0.4803427E+01   0.3000000E+00
   0.1741463E+02   0.1952381E+02   0.1117423E-04  -0.4951782E+01   0.1117423E-04  -0.4951782E+01   0.3000000E+00
   0.1741463E+02   0.2050000E+02   0.1117423E-04  -0.4951782E+01   0.1117423E-04  -0.4951782E+01   0.3000000E+00
   0.1990244E+02   0.0000000E+00   0.1151569E-04  -0.4938710E+01   0.1151569E-04  -0.4938710E+01   0.3000000E+00
   0.1990244E+02   0.9761905E+00   0.2379583E-04  -0.4623499E+01   0.2379583E-04  -0.4623499E+01   0.3000000E+00
   0.1990244E+02   0.1952381E+01   0.2284679E-04  -0.4641175E+01   0.2284679E-04  -0.4641175E+01   0.3000000E+00
   0.1990244E+02   0.2928571E+01   0.8252454E-05  -0.5083417E+01   0.8252454E-05  -0.5083417E+01   0.3000000E+00
   0.1990244E+02   0.3904762E+01   0.7271122E-05  -0.5138399E+01   0.7271122E-05  -0.5138399E+01   0.3000000E+00
   0.1990244E+02   0.4880952E+01   0.1708687E-04  -0.4767337E+01   0.1708687E-04  -0.4767337E+01   0.3000000E+00
   0.1990244E+02   0.5857143E+01   0.4606763E-04  -0.4336604E+01   0.4606763E-04  -0.4336604E+01   0.3000000E+00
   0.1990244E+02   0.6833333E+01   0.4555455E-04  -0.4341468E+01   0.4555455E-04  -0.4341468E+01   0.3000000E+00
   0.1990244E+02   0.7809524E+01   0.3145351E-04  -0.4502331E+01   0.3145351E-04  -0.4502331E+01   0.3000000E+00
   0.1990244E+02   0.8785714E+01   0.2555954E-04  -0.4592447E+01   0.2555954E-04  -0.4592447E+01   0.3000000E+00
   0.1990244E+02   0.9761905E+01   0.1826726E-04  -0.4738327E+01   0.1826726E-04  -0.4738327E+01   0.3000000E+00
   0.1990244E+02   0.1073810E+02   0.4049449E-07  -0.7392604E+01   0.4049449E-07  -0.7392604E+01   0.3000000E+00
   0.1990244E+02   0.1171429E+02   0.1885693E-06  -0.6724529E+01   0.1885693E-06  -0.6724529E+01   0.3000000E+00
   0.1990244E+02   0.1269048E+02   0.1512699E-06  -0.6820247E+01   0.1512699E-06  -0.6820247E+01   0.3000000E+00
   0.1990244E+02   0.1366667E+02   0.1896093E-06  -0.6722140E+01   0.1896093E-06  -0.6722140E+01   0.3000000E+00
   0.1990244E+02   0.1464286E+02   0.6269681E-04  -0.4202755E+01   0.6269681E-04  -0.4202755E+01   0.3000000E+00
   0.1990244E+02   0.1561905E+02   0.4008133E-04  -0.4397058E+01   0.4008133E-04  -0.4397058E+01   0.3000000E+00
   0.1990244E+02   0.1659524E+02   0.3095426E-04  -0.4509280E+01   0.3095426E-04  -0.4509280E+01   0.3000000E+00
   0.1990244E+02   0.1757143E+02   0.1546084E-04  -0.4810767E+01   0.1546084E-04  -0.4810767E+01   0.3000000E+00
   0.1990244E+02   0.1854762E+02   0.7071061E-05  -0.5150515E+01   0.7071061E-05  -0.5150515E+01   0.3000000E+00
   0.1990244E+02   0.1952381E+02   0.6671272E-05  -0.5175791E+01   0.6671272E-05  -0.5175791E+01   0.3000000E+00
   0.1990244E+02   0.2050000E+02   0.6671272E-05  -0.5175791E+01   0.6671272E-05  -0.5175791E+01   0.3000000E+00
   0.2239024E+02   0.0000000E+00   0.5966799E-05  -0.5224259E+01   0.5966799E-05  -0.5224259E+01   0.3000000E+00
   0.2239024E+02   0.9761905E+00   0.7128569E-05  -0.5146998E+01   0.7128569E-05  -0.5146998E+01   0.3000000E+00
   0.2239024E+02   0.1952381E+01   0.4756493E-05  -0.5322713E+01   0.4756493E-05  -0.5322713E+01   0.3000000E+00
   0.2239024E+02   0.2928571E+01   0.8976505E-05  -0.5046893E+01   0.8976505E-05  -0.5046893E+01   0.3000000E+00
   0.2239024E+02   0.3904762E+01   0.1745473E-04  -0.4758087E+01   0.1745473E-04  -0.4758087E+01   0.3000000E+00
   0.2239024E+02   0.4880952E+01   0.4597559E-04  -0.4337473E+01   0.4597559E-04  -0.4337473E+01   0.3000000E+00
   0.2239024E+02   0.5857143E+01   0.1204591E-03  -0.3919160E+01   0.1204591E-03  -0.3919160E+01   0.3000000E+00
   0.2239024E+02   0.6833333E+01   0.8876661E-04  -0.4051750E+01   0.8876661E-04  -0.4051750E+01   0.3000000E+00
   0.2239024E+02   0.7809524E+01   0.5152209E-04  -0.4288007E+01   0.5152209E-04  -0.4288007E+01   0.3000000E+00
   0.2239024E+02   0.8785714E+01   0.3708122E-04  -0.4430846E+01   0.3708122E-04  -0.4430846E+01   0.3000000E+00
   0.2239024E+02   0.9761905E+01   0.6155989E-04  -0.4210702E+01   0.6155989E-04  -0.4210702E+01   0.3000000E+00
   0.2239024E+02   0.1073810E+02   0.6096292E-07  -0.7214934E+01   0.6096292E-07  -0.7214934E+01   0.3000000E+00
   0.2239024E+02   0.1171429E+02   0.7419271E-07  -0.7129639E+01   0.7419271E-07  -0.7129639E+01   0.3000000E+00
   0.2239024E+02   0.1269048E+02   0.4276696E-07  -0.7368892E+01   0.4276696E-07  -0.7368892E+01   0.3000000E+00
   0.2239024E+02   0.1366667E+02   0.1354992E-06  -0.6868063E+01   0.1354992E-06  -0.6868063E+01   0.3000000E+00
   0.2239024E+02   0.1464286E+02   0.2591211E-04  -0.4586497E+01   0.2591211E-04  -0.4586497E+01   0.3000000E+00
   0.2239024E+02   0.1561905E+02   0.9681439E-05  -0.5014060E+01   0.9681439E-05  -0.5014060E+01   0.3000000E+00
   0.2239024E+02   0.1659524E+02   0.9140459E-05  -0.5039032E+01   0.9140459E-05  -0.5039032E+01   0.3000000E+00
   0.2239024E+02   0.1757143E+02   0.1324222E-04  -0.4878039E+01   0.1324222E-04  -0.4878039E+01   0.3000000E+00
   0.2239024E+02   0.1854762E+02   0.5770799E-05  -0.5238764E+01   0.5770799E-05  -0.5238764E+01   0.3000000E+00
   0.2239024E+02   0.1952381E+02   0.4170394E-05  -0.5379823E+01   0.4170394E-05  -0.5379823E+01   0.3000000E+00
   0.2239024E+02   0.2050000E+02   0.4170394E-05  -0.5379823E+01   0.4170394E-05  -0.5379823E+01   0.3000000E+00
   0.2487805E+02   0.0000000E+00   0.7235580E-05  -0.5140527E+01   0.7235580E-05  -0.5140527E+01   0.3000000E+00
   0.2487805E+02   0.9761905E+00   0.4524063E-05  -0.5344471E+01   0.4524063E-05  -0.5344471E+01   0.3000000E+00
   0.2487805E+02   0.1952381E+01   0.1821591E-05  -0.5739549E+01   0.1821591E-05  -0.5739549E+01   0.3000000E+00
   0.2487805E+02   0.2928571E+01   0.5965605E-05  -0.5224345E+01   0.5965605E-05  -0.5224345E+01   0.3000000E+00
   0.2487805E+02   0.3904762E+01   0.7154278E-05  -0.5145434E+01   0.7154278E-05  -0.5145434E+01   0.3000000E+00
   0.2487805E+02   0.4880952E+01   0.2149479E-04  -0.4667667E+01   0.2149479E-04  -0.4667667E+01   0.3000000E+00
   0.2487805E+02   0.5857143E+01   0.5956753E-04  -0.4224990E+01   0.5956753E-04  -0.4224990E+01   0.3000000E+00
   0.2487805E+02   0.6833333E+01   0.2115181E-03  -0.3674652E+01   0.2115181E-03  -0.3674652E+01   0.3000000E+00
   0.2487805E+02   0.7809524E+01   0.2610496E-03  -0.3583277E+01   0.2610496E-03  -0.3583277E+01   0.3000000E+00
   0.2487805E+02   0.8785714E+01   0.1011203E-03  -0.3995162E+01   0.1011203E-03  -0.3995162E+01   0.3000000E+00
   0.2487805E+02   0.9761905E+01   0.1414308E-03  -0.3849456E+01   0.1414308E-03  -0.3849456E+01   0.3000000E+00
   0.2487805E+02   0.1073810E+02   0.2043943E-07  -0.7689531E+01   0.2043943E-07  -0.7689531E+01   0.3000000E+00
   0.2487805E+02   0.1171429E+02   0.9947097E-07  -0.7002304E+01   0.9947097E-07  -0.7002304E+01   0.3000000E+00
   0.2487805E+02   0.1269048E+02   0.1675808E-06  -0.6775776E+01   0.1675808E-06  -0.6775776E+01   0.3000000E+00
   0.2487805E+02   0.1366667E+02   0.4246864E-07  -0.7371932E+01   0.4246864E-07  -0.7371932E+01   0.3000000E+00
   0.2487805E+02   0.1464286E+02   0.1932521E-04  -0.4713876E+01   0.1932521E-04  -0.4713876E+01   0.3000000E+00
   0.2487805E+02   0.1561905E+02   0.1199765E-04  -0.4920904E+01   0.1199765E-04  -0.4920904E+01   0.3000000E+00
   0.2487805E+02   0.1659524E+02   0.5505847E-05  -0.5259176E+01   0.5505847E-05  -0.5259176E+01   0.3000000E+00
   0.2487805E+02   0.1757143E+02   0.7169318E-05  -0.5144522E+01   0.7169318E-05  -0.5144522E+01   0.3000000E+00
   0.2487805E+02   0.1854762E+02   0.6578525E-05  -0.5181871E+01   0.6578525E-05  -0.5181871E+01   0.3000000E+00
   0.2487805E+02   0.1952381E+02   0.9640862E-05  -0.5015884E+01   0.9640862E-05  -0.5015884E+01   0.3000000E+00
   0.2487805E+02   0.2050000E+02   0.9640862E-05  -0.5015884E+01   0.9640862E-05  -0.5015884E+01   0.3000000E+00
   0.2736585E+02   0.0000000E+00   0.7623309E-05  -0.5117856E+01   0.7623309E-05  -0.5117856E+01   0.3000000E+00
   0.2736585E+02   0.9761905E+00   0.7239923E-05  -0.5140266E+01   0.7239923E-05  -0.5140266E+01   0.3000000E+00
   0.2736585E+02   0.1952381E+01   0.5413038E-05  -0.5266559E+01   0.5413038E-05  -0.5266559E+01   0.3000000E+00
   0.2736585E+02   0.2928571E+01   0.1092562E-04  -0.4961554E+01   0.1092562E-04  -0.4961554E+01   0.3000000E+00
   0.2736585E+02   0.3904762E+01   0.1016459E-04  -0.4992910E+01   0.1016459E-04  -0.4992910E+01   0.3000000E+00
   0.2736585E+02   0.4880952E+01   0.1895771E-04  -0.4722214E+01   0.1895771E-04  -0.4722214E+01   0.3000000E+00
   0.2736585E+02   0.5857143E+01   0.5908698E-04  -0.4228508E+01   0.5908698E-04  -0.4228508E+01   0.3000000E+00
   0.2736585E+02   0.6833333E+01   0.1404442E-03  -0.3852496E+01   0.1404442E-03  -0.3852496E+01   0.3000000E+00
   0.2736585E+02   0.7809524E+01   0.1295297E-03  -0.3887630E+01   0.1295297E-03  -0.3887630E+01   0.3000000E+00
   0.2736585E+02   0.8785714E+01   0.1771170E-03  -0.3751740E+01   0.1771170E-03  -0.3751740E+01   0.3000000E+00
   0.2736585E+02   0.9761905E+01   0.1138419E-03  -0.3943698E+01   0.1138419E-03  -0.3943698E+01   0.3000000E+00
   0.2736585E+02   0.1073810E+02   0.5413418E-07  -0.7266528E+01   0.5413418E-07  -0.7266528E+01   0.3000000E+00
   0.2736585E+02   0.1171429E+02   0.8359351E-07  -0.7077827E+01   0.8359351E-07  -0.7077827E+01   0.3000000E+00
   0.2736585E+02   0.1269048E+02   0.9939142E-07  -0.7002651E+01   0.9939142E-07  -0.7002651E+01   0.3000000E+00
   0.2736585E+02   0.1366667E+02   0.3567913E-07  -0.7447586E+01   0.3567913E-07  -0.7447586E+01   0.3000000E+00
   0.2736585E+02   0.1464286E+02   0.2263077E-04  -0.4645301E+01   0.2263077E-04  -0.4645301E+01   0.3000000E+00
   0.2736585E+02   0.1561905E+02   0.1220823E-04  -0.4913347E+01   0.1220823E-04  -0.4913347E+01   0.3000000E+00
   0.2736585E+02   0.1659524E+02   0.1440551E-04  -0.4841471E+01   0.1440551E-04  -0.4841471E+01   0.3000000E+00
   0.2736585E+02   0.1757143E+02   0.5991313E-05  -0.5222478E+01   0.5991313E-05  -0.5222478E+01   0.3000000E+00
   0.2736585E+02   0.1854762E+02   0.7842915E-05  -0.5105522E+01   0.7842915E-05  -0.5105522E+01   0.3000000E+00
   0.2736585E+02   0.1952381E+02   0.1064522E-04  -0.4972846E+01   0.1064522E-04  -0.4972846E+01   0.3000000E+00
   0.2736585E+02   0.2050000E+02   0.1064522E-04  -0.4972846E+01   0.1064522E-04  -0.4972846E+01   0.3000000E+00