title="2d K section "
variables="x","z","Kx","logKx","Kz","logKz","porosity"
zone i=    22, j=    42,T="Initial K at t=0"
   0.0000000E+00   0.0000000E+00   0.9450101E-04  -0.4024564E+01   0.9450101E-04  -0.4024564E+01   0.3000000E+00
   0.0000000E+00   0.9761905E+00   0.9891991E-04  -0.4004716E+01   0.9891991E-04  -0.4004716E+01   0.3000000E+00
   0.0000000E+00   0.1952381E+01   0.5429926E-04  -0.4265206E+01   0.5429926E-04  -0.4265206E+01   0.3000000E+00
   0.0000000E+00   0.2928571E+01   0.9641970E-04  -0.4015834E+01   0.9641970E-04  -0.4015834E+01   0.3000000E+00
   0.0000000E+00   0.3904762E+01   0.5333062E-04  -0.4273023E+01   0.5333062E-04  -0.4273023E+01   0.3000000E+00
   0.0000000E+00   0.4880952E+01   0.5300629E-04  -0.4275673E+01   0.5300629E-04  -0.4275673E+01   0.3000000E+00
   0.0000000E+00   0.5857143E+01   0.1318277E-04  -0.4879993E+01   0.1318277E-04  -0.4879993E+01   0.3000000E+00
   0.0000000E+00   0.6833333E+01   0.3700343E-04  -0.4431758E+01   0.3700343E-04  -0.4431758E+01   0.3000000E+00
   0.0000000E+00   0.7809524E+01   0.3188101E-04  -0.4496468E+01   0.3188101E-04  -0.4496468E+01   0.3000000E+00
   0.0000000E+00   0.8785714E+01   0.6199232E-04  -0.4207662E+01   0.6199232E-04  -0.4207662E+01   0.3000000E+00
   0.0000000E+00   0.9761905E+01   0.1503717E-03  -0.3822834E+01   0.1503717E-03  -0.3822834E+01   0.3000000E+00
   0.0000000E+00   0.1073810E+02   0.2635521E-07  -0.7579134E+01   0.2635521E-07  -0.7579134E+01   0.3000000E+00
   0.0000000E+00   0.1171429E+02   0.4317022E-08  -0.8364816E+01   0.4317022E-08  -0.8364816E+01   0.3000000E+00
   0.0000000E+00   0.1269048E+02   0.2742763E-08  -0.8561812E+01   0.2742763E-08  -0.8561812E+01   0.3000000E+00
   0.0000000E+00   0.1366667E+02   0.9834051E-09  -0.9007268E+01   0.9834051E-09  -0.9007268E+01   0.3000000E+00
   0.0000000E+00   0.1464286E+02   0.2344251E-08  -0.8629996E+01   0.2344251E-08  -0.8629996E+01   0.3000000E+00
   0.0000000E+00   0.1561905E+02   0.7441150E-04  -0.4128360E+01   0.7441150E-04  -0.4128360E+01   0.3000000E+00
   0.0000000E+00   0.1659524E+02   0.2525971E-04  -0.4597572E+01   0.2525971E-04  -0.4597572E+01   0.3000000E+00
   0.0000000E+00   0.1757143E+02   0.1427644E-04  -0.4845380E+01   0.1427644E-04  -0.4845380E+01   0.3000000E+00
   0.0000000E+00   0.1854762E+02   0.1461883E-04  -0.4835087E+01   0.1461883E-04  -0.4835087E+01   0.3000000E+00
   0.0000000E+00   0.1952381E+02   0.3007549E-04  -0.4521787E+01   0.3007549E-04  -0.4521787E+01   0.3000000E+00
   0.0000000E+00   0.2050000E+02   0.3007549E-04  -0.4521787E+01   0.3007549E-04  -0.4521787E+01   0.3000000E+00
   0.2487805E+01   0.0000000E+00   0.8924725E-04  -0.4049405E+01   0.8924725E-04  -0.4049405E+01   0.3000000E+00
   0.2487805E+01   0.9761905E+00   0.9659341E-04  -0.4015052E+01   0.9659341E-04  -0.4015052E+01   0.3000000E+00
   0.2487805E+01   0.1952381E+01   0.1120237E-03  -0.3950690E+01   0.1120237E-03  -0.3950690E+01   0.3000000E+00
   0.2487805E+01   0.2928571E+01   0.8080271E-04  -0.4092574E+01   0.8080271E-04  -0.4092574E+01   0.3000000E+00
   0.2487805E+01   0.3904762E+01   0.6474850E-04  -0.4188770E+01   0.6474850E-04  -0.4188770E+01   0.3000000E+00
   0.2487805E+01   0.4880952E+01   0.9110345E-05  -0.5040465E+01   0.9110345E-05  -0.5040465E+01   0.3000000E+00
   0.2487805E+01   0.5857143E+01   0.1846747E-04  -0.4733593E+01   0.1846747E-04  -0.4733593E+01   0.3000000E+00
   0.2487805E+01   0.6833333E+01   0.1318936E-04  -0.4879776E+01   0.1318936E-04  -0.4879776E+01   0.3000000E+00
   0.2487805E+01   0.7809524E+01   0.2135339E-04  -0.4670533E+01   0.2135339E-04  -0.4670533E+01   0.3000000E+00
   0.2487805E+01   0.8785714E+01   0.7276322E-04  -0.4138088E+01   0.7276322E-04  -0.4138088E+01   0.3000000E+00
   0.2487805E+01   0.9761905E+01   0.1184642E-03  -0.3926413E+01   0.1184642E-03  -0.3926413E+01   0.3000000E+00
   0.2487805E+01   0.1073810E+02   0.1295220E-07  -0.7887656E+01   0.1295220E-07  -0.7887656E+01   0.3000000E+00
   0.2487805E+01   0.1171429E+02   0.3471774E-08  -0.8459448E+01   0.3471774E-08  -0.8459448E+01   0.3000000E+00
   0.2487805E+01   0.1269048E+02   0.1403074E-08  -0.8852919E+01   0.1403074E-08  -0.8852919E+01   0.3000000E+00
   0.2487805E+01   0.1366667E+02   0.1677435E-08  -0.8775354E+01   0.1677435E-08  -0.8775354E+01   0.3000000E+00
   0.2487805E+01   0.1464286E+02   0.1513978E-03  -0.3819881E+01   0.1513978E-03  -0.3819881E+01   0.3000000E+00
   0.2487805E+01   0.1561905E+02   0.2484386E-04  -0.4604781E+01   0.2484386E-04  -0.4604781E+01   0.3000000E+00
   0.2487805E+01   0.1659524E+02   0.4306005E-05  -0.5365925E+01   0.4306005E-05  -0.5365925E+01   0.3000000E+00
   0.2487805E+01   0.1757143E+02   0.5562850E-05  -0.5254703E+01   0.5562850E-05  -0.5254703E+01   0.3000000E+00
   0.2487805E+01   0.1854762E+02   0.5257263E-05  -0.5279240E+01   0.5257263E-05  -0.5279240E+01   0.3000000E+00
   0.2487805E+01   0.1952381E+02   0.1138060E-04  -0.4943835E+01   0.1138060E-04  -0.4943835E+01   0.3000000E+00
   0.2487805E+01   0.2050000E+02   0.1138060E-04  -0.4943835E+01   0.1138060E-04  -0.4943835E+01   0.3000000E+00
   0.4975610E+01   0.0000000E+00   0.6349814E-04  -0.4197239E+01   0.6349814E-04  -0.4197239E+01   0.3000000E+00
   0.4975610E+01   0.9761905E+00   0.5464789E-04  -0.4262427E+01   0.5464789E-04  -0.4262427E+01   0.3000000E+00
   0.4975610E+01   0.1952381E+01   0.5216494E-04  -0.4282621E+01   0.5216494E-04  -0.4282621E+01   0.3000000E+00
   0.4975610E+01   0.2928571E+01   0.1159560E-03  -0.3935707E+01   0.1159560E-03  -0.3935707E+01   0.3000000E+00
   0.4975610E+01   0.3904762E+01   0.4621528E-04  -0.4335214E+01   0.4621528E-04  -0.4335214E+01   0.3000000E+00
   0.4975610E+01   0.4880952E+01   0.2699389E-04  -0.4568735E+01   0.2699389E-04  -0.4568735E+01   0.3000000E+00
   0.4975610E+01   0.5857143E+01   0.1830017E-04  -0.4737545E+01   0.1830017E-04  -0.4737545E+01   0.3000000E+00
   0.4975610E+01   0.6833333E+01   0.2152921E-04  -0.4666972E+01   0.2152921E-04  -0.4666972E+01   0.3000000E+00
   0.4975610E+01   0.7809524E+01   0.8371436E-04  -0.4077200E+01   0.8371436E-04  -0.4077200E+01   0.3000000E+00
   0.4975610E+01   0.8785714E+01   0.8045601E-04  -0.4094442E+01   0.8045601E-04  -0.4094442E+01   0.3000000E+00
   0.4975610E+01   0.9761905E+01   0.7145805E-04  -0.4145949E+01   0.7145805E-04  -0.4145949E+01   0.3000000E+00
   0.4975610E+01   0.1073810E+02   0.1402093E-08  -0.8853223E+01   0.1402093E-08  -0.8853223E+01   0.3000000E+00
   0.4975610E+01   0.1171429E+02   0.1063926E-08  -0.8973089E+01   0.1063926E-08  -0.8973089E+01   0.3000000E+00
   0.4975610E+01   0.1269048E+02   0.7689463E-09  -0.9114104E+01   0.7689463E-09  -0.9114104E+01   0.3000000E+00
   0.4975610E+01   0.1366667E+02   0.1498352E-08  -0.8824386E+01   0.1498352E-08  -0.8824386E+01   0.3000000E+00
   0.4975610E+01   0.1464286E+02   0.3411068E-04  -0.4467110E+01   0.3411068E-04  -0.4467110E+01   0.3000000E+00
   0.4975610E+01   0.1561905E+02   0.3362301E-04  -0.4473363E+01   0.3362301E-04  -0.4473363E+01   0.3000000E+00
   0.4975610E+01   0.1659524E+02   0.1416977E-04  -0.4848637E+01   0.1416977E-04  -0.4848637E+01   0.3000000E+00
   0.4975610E+01   0.1757143E+02   0.6857964E-05  -0.5163805E+01   0.6857964E-05  -0.5163805E+01   0.3000000E+00
   0.4975610E+01   0.1854762E+02   0.1174597E-04  -0.4930111E+01   0.1174597E-04  -0.4930111E+01   0.3000000E+00
   0.4975610E+01   0.1952381E+02   0.1461883E-04  -0.4835087E+01   0.1461883E-04  -0.4835087E+01   0.3000000E+00
   0.4975610E+01   0.2050000E+02   0.1461883E-04  -0.4835087E+01   0.1461883E-04  -0.4835087E+01   0.3000000E+00
   0.7463415E+01   0.0000000E+00   0.3305955E-04  -0.4480703E+01   0.3305955E-04  -0.4480703E+01   0.3000000E+00
   0.7463415E+01   0.9761905E+00   0.8473346E-04  -0.4071945E+01   0.8473346E-04  -0.4071945E+01   0.3000000E+00
   0.7463415E+01   0.1952381E+01   0.5746124E-04  -0.4240625E+01   0.5746124E-04  -0.4240625E+01   0.3000000E+00
   0.7463415E+01   0.2928571E+01   0.7258879E-04  -0.4139130E+01   0.7258879E-04  -0.4139130E+01   0.3000000E+00
   0.7463415E+01   0.3904762E+01   0.4938815E-04  -0.4306377E+01   0.4938815E-04  -0.4306377E+01   0.3000000E+00
   0.7463415E+01   0.4880952E+01   0.2684315E-04  -0.4571167E+01   0.2684315E-04  -0.4571167E+01   0.3000000E+00
   0.7463415E+01   0.5857143E+01   0.4400532E-04  -0.4356495E+01   0.4400532E-04  -0.4356495E+01   0.3000000E+00
   0.7463415E+01   0.6833333E+01   0.5426669E-04  -0.4265467E+01   0.5426669E-04  -0.4265467E+01   0.3000000E+00
   0.7463415E+01   0.7809524E+01   0.1088870E-03  -0.3963024E+01   0.1088870E-03  -0.3963024E+01   0.3000000E+00
   0.7463415E+01   0.8785714E+01   0.1166188E-03  -0.3933231E+01   0.1166188E-03  -0.3933231E+01   0.3000000E+00
   0.7463415E+01   0.9761905E+01   0.7479197E-04  -0.4126145E+01   0.7479197E-04  -0.4126145E+01   0.3000000E+00
   0.7463415E+01   0.1073810E+02   0.1410813E-08  -0.8850531E+01   0.1410813E-08  -0.8850531E+01   0.3000000E+00
   0.7463415E+01   0.1171429E+02   0.1862586E-08  -0.8729884E+01   0.1862586E-08  -0.8729884E+01   0.3000000E+00
   0.7463415E+01   0.1269048E+02   0.4693440E-08  -0.8328509E+01   0.4693440E-08  -0.8328509E+01   0.3000000E+00
   0.7463415E+01   0.1366667E+02   0.6752183E-08  -0.8170556E+01   0.6752183E-08  -0.8170556E+01   0.3000000E+00
   0.7463415E+01   0.1464286E+02   0.1992371E-04  -0.4700630E+01   0.1992371E-04  -0.4700630E+01   0.3000000E+00
   0.7463415E+01   0.1561905E+02   0.3552407E-04  -0.4449477E+01   0.3552407E-04  -0.4449477E+01   0.3000000E+00
   0.7463415E+01   0.1659524E+02   0.3509331E-04  -0.4454776E+01   0.3509331E-04  -0.4454776E+01   0.3000000E+00
   0.7463415E+01   0.1757143E+02   0.1962316E-04  -0.4707231E+01   0.1962316E-04  -0.4707231E+01   0.3000000E+00
   0.7463415E+01   0.1854762E+02   0.1676696E-04  -0.4775546E+01   0.1676696E-04  -0.4775546E+01   0.3000000E+00
   0.7463415E+01   0.1952381E+02   0.1250603E-04  -0.4902881E+01   0.1250603E-04  -0.4902881E+01   0.3000000E+00
   0.7463415E+01   0.2050000E+02   0.1250603E-04  -0.4902881E+01   0.1250603E-04  -0.4902881E+01   0.3000000E+00
   0.9951220E+01   0.0000000E+00   0.2133845E-04  -0.4670837E+01   0.2133845E-04  -0.4670837E+01   0.3000000E+00
   0.9951220E+01   0.9761905E+00   0.6346005E-04  -0.4197500E+01   0.6346005E-04  -0.4197500E+01   0.3000000E+00
   0.9951220E+01   0.1952381E+01   0.5206071E-04  -0.4283490E+01   0.5206071E-04  -0.4283490E+01   0.3000000E+00
   0.9951220E+01   0.2928571E+01   0.6089253E-04  -0.4215436E+01   0.6089253E-04  -0.4215436E+01   0.3000000E+00
   0.9951220E+01   0.3904762E+01   0.6328261E-04  -0.4198716E+01   0.6328261E-04  -0.4198716E+01   0.3000000E+00
   0.9951220E+01   0.4880952E+01   0.3025649E-04  -0.4519182E+01   0.3025649E-04  -0.4519182E+01   0.3000000E+00
   0.9951220E+01   0.5857143E+01   0.2550847E-04  -0.4593316E+01   0.2550847E-04  -0.4593316E+01   0.3000000E+00
   0.9951220E+01   0.6833333E+01   0.4584245E-04  -0.4338732E+01   0.4584245E-04  -0.4338732E+01   0.3000000E+00
   0.9951220E+01   0.7809524E+01   0.5708324E-04  -0.4243491E+01   0.5708324E-04  -0.4243491E+01   0.3000000E+00
   0.9951220E+01   0.8785714E+01   0.1483554E-03  -0.3828697E+01   0.1483554E-03  -0.3828697E+01   0.3000000E+00
   0.9951220E+01   0.9761905E+01   0.4667042E-04  -0.4330958E+01   0.4667042E-04  -0.4330958E+01   0.3000000E+00
   0.9951220E+01   0.1073810E+02   0.1394542E-08  -0.8855568E+01   0.1394542E-08  -0.8855568E+01   0.3000000E+00
   0.9951220E+01   0.1171429E+02   0.9991811E-08  -0.8000356E+01   0.9991811E-08  -0.8000356E+01   0.3000000E+00
   0.9951220E+01   0.1269048E+02   0.1115587E-07  -0.7952497E+01   0.1115587E-07  -0.7952497E+01   0.3000000E+00
   0.9951220E+01   0.1366667E+02   0.1491050E-07  -0.7826508E+01   0.1491050E-07  -0.7826508E+01   0.3000000E+00
   0.9951220E+01   0.1464286E+02   0.3400510E-04  -0.4468456E+01   0.3400510E-04  -0.4468456E+01   0.3000000E+00
   0.9951220E+01   0.1561905E+02   0.2739637E-04  -0.4562307E+01   0.2739637E-04  -0.4562307E+01   0.3000000E+00
   0.9951220E+01   0.1659524E+02   0.2046898E-04  -0.4688904E+01   0.2046898E-04  -0.4688904E+01   0.3000000E+00
   0.9951220E+01   0.1757143E+02   0.2762194E-04  -0.4558746E+01   0.2762194E-04  -0.4558746E+01   0.3000000E+00
   0.9951220E+01   0.1854762E+02   0.2807868E-04  -0.4551623E+01   0.2807868E-04  -0.4551623E+01   0.3000000E+00
   0.9951220E+01   0.1952381E+02   0.2310411E-04  -0.4636311E+01   0.2310411E-04  -0.4636311E+01   0.3000000E+00
   0.9951220E+01   0.2050000E+02   0.2310411E-04  -0.4636311E+01   0.2310411E-04  -0.4636311E+01   0.3000000E+00
   0.1243902E+02   0.0000000E+00   0.2990754E-04  -0.4524219E+01   0.2990754E-04  -0.4524219E+01   0.3000000E+00
   0.1243902E+02   0.9761905E+00   0.6272189E-04  -0.4202581E+01   0.6272189E-04  -0.4202581E+01   0.3000000E+00
   0.1243902E+02   0.1952381E+01   0.3914648E-04  -0.4407307E+01   0.3914648E-04  -0.4407307E+01   0.3000000E+00
   0.1243902E+02   0.2928571E+01   0.1163276E-03  -0.3934317E+01   0.1163276E-03  -0.3934317E+01   0.3000000E+00
   0.1243902E+02   0.3904762E+01   0.7159395E-04  -0.4145124E+01   0.7159395E-04  -0.4145124E+01   0.3000000E+00
   0.1243902E+02   0.4880952E+01   0.2046693E-04  -0.4688947E+01   0.2046693E-04  -0.4688947E+01   0.3000000E+00
   0.1243902E+02   0.5857143E+01   0.3373752E-04  -0.4471887E+01   0.3373752E-04  -0.4471887E+01   0.3000000E+00
   0.1243902E+02   0.6833333E+01   0.2935934E-04  -0.4532254E+01   0.2935934E-04  -0.4532254E+01   0.3000000E+00
   0.1243902E+02   0.7809524E+01   0.3606456E-04  -0.4442919E+01   0.3606456E-04  -0.4442919E+01   0.3000000E+00
   0.1243902E+02   0.8785714E+01   0.2633267E-04  -0.4579505E+01   0.2633267E-04  -0.4579505E+01   0.3000000E+00
   0.1243902E+02   0.9761905E+01   0.5232690E-04  -0.4281275E+01   0.5232690E-04  -0.4281275E+01   0.3000000E+00
   0.1243902E+02   0.1073810E+02   0.2819278E-07  -0.7549862E+01   0.2819278E-07  -0.7549862E+01   0.3000000E+00
   0.1243902E+02   0.1171429E+02   0.1840764E-07  -0.7735002E+01   0.1840764E-07  -0.7735002E+01   0.3000000E+00
   0.1243902E+02   0.1269048E+02   0.8069293E-08  -0.8093165E+01   0.8069293E-08  -0.8093165E+01   0.3000000E+00
   0.1243902E+02   0.1366667E+02   0.6991994E-08  -0.8155399E+01   0.6991994E-08  -0.8155399E+01   0.3000000E+00
   0.1243902E+02   0.1464286E+02   0.6929762E-04  -0.4159282E+01   0.6929762E-04  -0.4159282E+01   0.3000000E+00
   0.1243902E+02   0.1561905E+02   0.6381642E-04  -0.4195068E+01   0.6381642E-04  -0.4195068E+01   0.3000000E+00
   0.1243902E+02   0.1659524E+02   0.6424543E-04  -0.4192158E+01   0.6424543E-04  -0.4192158E+01   0.3000000E+00
   0.1243902E+02   0.1757143E+02   0.3290125E-04  -0.4482788E+01   0.3290125E-04  -0.4482788E+01   0.3000000E+00
   0.1243902E+02   0.1854762E+02   0.2867457E-04  -0.4542503E+01   0.2867457E-04  -0.4542503E+01   0.3000000E+00
   0.1243902E+02   0.1952381E+02   0.1695242E-04  -0.4770768E+01   0.1695242E-04  -0.4770768E+01   0.3000000E+00
   0.1243902E+02   0.2050000E+02   0.1695242E-04  -0.4770768E+01   0.1695242E-04  -0.4770768E+01   0.3000000E+00
   0.1492683E+02   0.0000000E+00   0.3210496E-04  -0.4493428E+01   0.3210496E-04  -0.4493428E+01   0.3000000E+00
   0.1492683E+02   0.9761905E+00   0.7317183E-04  -0.4135656E+01   0.7317183E-04  -0.4135656E+01   0.3000000E+00
   0.1492683E+02   0.1952381E+01   0.6151066E-04  -0.4211050E+01   0.6151066E-04  -0.4211050E+01   0.3000000E+00
   0.1492683E+02   0.2928571E+01   0.3835982E-04  -0.4416123E+01   0.3835982E-04  -0.4416123E+01   0.3000000E+00
   0.1492683E+02   0.3904762E+01   0.2512870E-04  -0.4599830E+01   0.2512870E-04  -0.4599830E+01   0.3000000E+00
   0.1492683E+02   0.4880952E+01   0.3417555E-04  -0.4466284E+01   0.3417555E-04  -0.4466284E+01   0.3000000E+00
   0.1492683E+02   0.5857143E+01   0.4104670E-04  -0.4386722E+01   0.4104670E-04  -0.4386722E+01   0.3000000E+00
   0.1492683E+02   0.6833333E+01   0.3782652E-04  -0.4422204E+01   0.3782652E-04  -0.4422204E+01   0.3000000E+00
   0.1492683E+02   0.7809524E+01   0.4084198E-04  -0.4388893E+01   0.4084198E-04  -0.4388893E+01   0.3000000E+00
   0.1492683E+02   0.8785714E+01   0.1643824E-04  -0.4784145E+01   0.1643824E-04  -0.4784145E+01   0.3000000E+00
   0.1492683E+02   0.9761905E+01   0.3212102E-04  -0.4493211E+01   0.3212102E-04  -0.4493211E+01   0.3000000E+00
   0.1492683E+02   0.1073810E+02   0.5657492E-07  -0.7247376E+01   0.5657492E-07  -0.7247376E+01   0.3000000E+00
   0.1492683E+02   0.1171429E+02   0.1003587E-07  -0.7998445E+01   0.1003587E-07  -0.7998445E+01   0.3000000E+00
   0.1492683E+02   0.1269048E+02   0.2469167E-07  -0.7607450E+01   0.2469167E-07  -0.7607450E+01   0.3000000E+00
   0.1492683E+02   0.1366667E+02   0.1616367E-07  -0.7791460E+01   0.1616367E-07  -0.7791460E+01   0.3000000E+00
   0.1492683E+02   0.1464286E+02   0.6172016E-04  -0.4209573E+01   0.6172016E-04  -0.4209573E+01   0.3000000E+00
   0.1492683E+02   0.1561905E+02   0.7405518E-04  -0.4130445E+01   0.7405518E-04  -0.4130445E+01   0.3000000E+00
   0.1492683E+02   0.1659524E+02   0.6176955E-04  -0.4209226E+01   0.6176955E-04  -0.4209226E+01   0.3000000E+00
   0.1492683E+02   0.1757143E+02   0.1961139E-04  -0.4707492E+01   0.1961139E-04  -0.4707492E+01   0.3000000E+00
   0.1492683E+02   0.1854762E+02   0.2550847E-04  -0.4593316E+01   0.2550847E-04  -0.4593316E+01   0.3000000E+00
   0.1492683E+02   0.1952381E+02   0.1005239E-04  -0.4997731E+01   0.1005239E-04  -0.4997731E+01   0.3000000E+00
   0.1492683E+02   0.2050000E+02   0.1005239E-04  -0.4997731E+01   0.1005239E-04  -0.4997731E+01   0.3000000E+00
   0.1741463E+02   0.0000000E+00   0.3479280E-04  -0.4458511E+01   0.3479280E-04  -0.4458511E+01   0.3000000E+00
   0.1741463E+02   0.9761905E+00   0.3819141E-04  -0.4418034E+01   0.3819141E-04  -0.4418034E+01   0.3000000E+00
   0.1741463E+02   0.1952381E+01   0.6598389E-04  -0.4180562E+01   0.6598389E-04  -0.4180562E+01   0.3000000E+00
   0.1741463E+02   0.2928571E+01   0.4659115E-04  -0.4331697E+01   0.4659115E-04  -0.4331697E+01   0.3000000E+00
   0.1741463E+02   0.3904762E+01   0.2086787E-04  -0.4680522E+01   0.2086787E-04  -0.4680522E+01   0.3000000E+00
   0.1741463E+02   0.4880952E+01   0.2531281E-04  -0.4596660E+01   0.2531281E-04  -0.4596660E+01   0.3000000E+00
   0.1741463E+02   0.5857143E+01   0.4755137E-04  -0.4322837E+01   0.4755137E-04  -0.4322837E+01   0.3000000E+00
   0.1741463E+02   0.6833333E+01   0.2085535E-04  -0.4680782E+01   0.2085535E-04  -0.4680782E+01   0.3000000E+00
   0.1741463E+02   0.7809524E+01   0.2310411E-04  -0.4636311E+01   0.2310411E-04  -0.4636311E+01   0.3000000E+00
   0.1741463E+02   0.8785714E+01   0.1976496E-04  -0.4704104E+01   0.1976496E-04  -0.4704104E+01   0.3000000E+00
   0.1741463E+02   0.9761905E+01   0.1402316E-04  -0.4853154E+01   0.1402316E-04  -0.4853154E+01   0.3000000E+00
   0.1741463E+02   0.1073810E+02   0.1677821E-06  -0.6775254E+01   0.1677821E-06  -0.6775254E+01   0.3000000E+00
   0.1741463E+02   0.1171429E+02   0.8439987E-07  -0.7073658E+01   0.8439987E-07  -0.7073658E+01   0.3000000E+00
   0.1741463E+02   0.1269048E+02   0.1090892E-06  -0.6962218E+01   0.1090892E-06  -0.6962218E+01   0.3000000E+00
   0.1741463E+02   0.1366667E+02   0.1380017E-06  -0.6860116E+01   0.1380017E-06  -0.6860116E+01   0.3000000E+00
   0.1741463E+02   0.1464286E+02   0.1094109E-03  -0.3960939E+01   0.1094109E-03  -0.3960939E+01   0.3000000E+00
   0.1741463E+02   0.1561905E+02   0.4972514E-04  -0.4303424E+01   0.4972514E-04  -0.4303424E+01   0.3000000E+00
   0.1741463E+02   0.1659524E+02   0.2261494E-04  -0.4645605E+01   0.2261494E-04  -0.4645605E+01   0.3000000E+00
   0.1741463E+02   0.1757143E+02   0.1932328E-04  -0.4713919E+01   0.1932328E-04  -0.4713919E+01   0.3000000E+00
   0.1741463E+02   0.1854762E+02   0.1571492E-04  -0.4803688E+01   0.1571492E-04  -0.4803688E+01   0.3000000E+00
   0.1741463E+02   0.1952381E+02   0.1117647E-04  -0.4951695E+01   0.1117647E-04  -0.4951695E+01   0.3000000E+00
   0.1741463E+02   0.2050000E+02   0.1117647E-04  -0.4951695E+01   0.1117647E-04  -0.4951695E+01   0.3000000E+00
   0.1990244E+02   0.0000000E+00   0.1151569E-04  -0.4938710E+01   0.1151569E-04  -0.4938710E+01   0.3000000E+00
   0.1990244E+02   0.9761905E+00   0.2379583E-04  -0.4623499E+01   0.2379583E-04  -0.4623499E+01   0.3000000E+00
   0.1990244E+02   0.1952381E+01   0.2284679E-04  -0.4641175E+01   0.2284679E-04  -0.4641175E+01   0.3000000E+00
   0.1990244E+02   0.2928571E+01   0.8252454E-05  -0.5083417E+01   0.8252454E-05  -0.5083417E+01   0.3000000E+00
   0.1990244E+02   0.3904762E+01   0.7271122E-05  -0.5138399E+01   0.7271122E-05  -0.5138399E+01   0.3000000E+00
   0.1990244E+02   0.4880952E+01   0.1703569E-04  -0.4768640E+01   0.1703569E-04  -0.4768640E+01   0.3000000E+00
   0.1990244E+02   0.5857143E+01   0.4605842E-04  -0.4336691E+01   0.4605842E-04  -0.4336691E+01   0.3000000E+00
   0.1990244E+02   0.6833333E+01   0.4560469E-04  -0.4340990E+01   0.4560469E-04  -0.4340990E+01   0.3000000E+00
   0.1990244E+02   0.7809524E+01   0.3158905E-04  -0.4500463E+01   0.3158905E-04  -0.4500463E+01   0.3000000E+00
   0.1990244E+02   0.8785714E+01   0.2566198E-04  -0.4590710E+01   0.2566198E-04  -0.4590710E+01   0.3000000E+00
   0.1990244E+02   0.9761905E+01   0.1829286E-04  -0.4737719E+01   0.1829286E-04  -0.4737719E+01   0.3000000E+00
   0.1990244E+02   0.1073810E+02   0.4059585E-07  -0.7391518E+01   0.4059585E-07  -0.7391518E+01   0.3000000E+00
   0.1990244E+02   0.1171429E+02   0.1883809E-06  -0.6724963E+01   0.1883809E-06  -0.6724963E+01   0.3000000E+00
   0.1990244E+02   0.1269048E+02   0.1510130E-06  -0.6820986E+01   0.1510130E-06  -0.6820986E+01   0.3000000E+00
   0.1990244E+02   0.1366667E+02   0.1908076E-06  -0.6719404E+01   0.1908076E-06  -0.6719404E+01   0.3000000E+00
   0.1990244E+02   0.1464286E+02   0.6235292E-04  -0.4205143E+01   0.6235292E-04  -0.4205143E+01   0.3000000E+00
   0.1990244E+02   0.1561905E+02   0.3998925E-04  -0.4398057E+01   0.3998925E-04  -0.4398057E+01   0.3000000E+00
   0.1990244E+02   0.1659524E+02   0.3087388E-04  -0.4510409E+01   0.3087388E-04  -0.4510409E+01   0.3000000E+00
   0.1990244E+02   0.1757143E+02   0.1540682E-04  -0.4812287E+01   0.1540682E-04  -0.4812287E+01   0.3000000E+00
   0.1990244E+02   0.1854762E+02   0.7050585E-05  -0.5151775E+01   0.7050585E-05  -0.5151775E+01   0.3000000E+00
   0.1990244E+02   0.1952381E+02   0.6670605E-05  -0.5175835E+01   0.6670605E-05  -0.5175835E+01   0.3000000E+00
   0.1990244E+02   0.2050000E+02   0.6670605E-05  -0.5175835E+01   0.6670605E-05  -0.5175835E+01   0.3000000E+00
   0.2239024E+02   0.0000000E+00   0.5966799E-05  -0.5224259E+01   0.5966799E-05  -0.5224259E+01   0.3000000E+00
   0.2239024E+02   0.9761905E+00   0.7128569E-05  -0.5146998E+01   0.7128569E-05  -0.5146998E+01   0.3000000E+00
   0.2239024E+02   0.1952381E+01   0.4756493E-05  -0.5322713E+01   0.4756493E-05  -0.5322713E+01   0.3000000E+00
   0.2239024E+02   0.2928571E+01   0.8976505E-05  -0.5046893E+01   0.8976505E-05  -0.5046893E+01   0.3000000E+00
   0.2239024E+02   0.3904762E+01   0.1745473E-04  -0.4758087E+01   0.1745473E-04  -0.4758087E+01   0.3000000E+00
   0.2239024E+02   0.4880952E+01   0.4581037E-04  -0.4339036E+01   0.4581037E-04  -0.4339036E+01   0.3000000E+00
   0.2239024E+02   0.5857143E+01   0.1202545E-03  -0.3919899E+01   0.1202545E-03  -0.3919899E+01   0.3000000E+00
   0.2239024E+02   0.6833333E+01   0.8885542E-04  -0.4051316E+01   0.8885542E-04  -0.4051316E+01   0.3000000E+00
   0.2239024E+02   0.7809524E+01   0.5178034E-04  -0.4285835E+01   0.5178034E-04  -0.4285835E+01   0.3000000E+00
   0.2239024E+02   0.8785714E+01   0.3717775E-04  -0.4429717E+01   0.3717775E-04  -0.4429717E+01   0.3000000E+00
   0.2239024E+02   0.9761905E+01   0.6155374E-04  -0.4210746E+01   0.6155374E-04  -0.4210746E+01   0.3000000E+00
   0.2239024E+02   0.1073810E+02   0.6151406E-07  -0.7211026E+01   0.6151406E-07  -0.7211026E+01   0.3000000E+00
   0.2239024E+02   0.1171429E+02   0.7469894E-07  -0.7126686E+01   0.7469894E-07  -0.7126686E+01   0.3000000E+00
   0.2239024E+02   0.1269048E+02   0.4292549E-07  -0.7367285E+01   0.4292549E-07  -0.7367285E+01   0.3000000E+00
   0.2239024E+02   0.1366667E+02   0.1365876E-06  -0.6864589E+01   0.1365876E-06  -0.6864589E+01   0.3000000E+00
   0.2239024E+02   0.1464286E+02   0.2567225E-04  -0.4590536E+01   0.2567225E-04  -0.4590536E+01   0.3000000E+00
   0.2239024E+02   0.1561905E+02   0.9630263E-05  -0.5016362E+01   0.9630263E-05  -0.5016362E+01   0.3000000E+00
   0.2239024E+02   0.1659524E+02   0.9108523E-05  -0.5040552E+01   0.9108523E-05  -0.5040552E+01   0.3000000E+00
   0.2239024E+02   0.1757143E+02   0.1318145E-04  -0.4880037E+01   0.1318145E-04  -0.4880037E+01   0.3000000E+00
   0.2239024E+02   0.1854762E+02   0.5756966E-05  -0.5239806E+01   0.5756966E-05  -0.5239806E+01   0.3000000E+00
   0.2239024E+02   0.1952381E+02   0.4172480E-05  -0.5379606E+01   0.4172480E-05  -0.5379606E+01   0.3000000E+00
   0.2239024E+02   0.2050000E+02   0.4172480E-05  -0.5379606E+01   0.4172480E-05  -0.5379606E+01   0.3000000E+00
   0.2487805E+02   0.0000000E+00   0.7235580E-05  -0.5140527E+01   0.7235580E-05  -0.5140527E+01   0.3000000E+00
   0.2487805E+02   0.9761905E+00   0.4524063E-05  -0.5344471E+01   0.4524063E-05  -0.5344471E+01   0.3000000E+00
   0.2487805E+02   0.1952381E+01   0.1821591E-05  -0.5739549E+01   0.1821591E-05  -0.5739549E+01   0.3000000E+00
   0.2487805E+02   0.2928571E+01   0.5965605E-05  -0.5224345E+01   0.5965605E-05  -0.5224345E+01   0.3000000E+00
   0.2487805E+02   0.3904762E+01   0.7154278E-05  -0.5145434E+01   0.7154278E-05  -0.5145434E+01   0.3000000E+00
   0.2487805E+02   0.4880952E+01   0.2143683E-04  -0.4668839E+01   0.2143683E-04  -0.4668839E+01   0.3000000E+00
   0.2487805E+02   0.5857143E+01   0.5930007E-04  -0.4226945E+01   0.5930007E-04  -0.4226945E+01   0.3000000E+00
   0.2487805E+02   0.6833333E+01   0.2114124E-03  -0.3674870E+01   0.2114124E-03  -0.3674870E+01   0.3000000E+00
   0.2487805E+02   0.7809524E+01   0.2616769E-03  -0.3582235E+01   0.2616769E-03  -0.3582235E+01   0.3000000E+00
   0.2487805E+02   0.8785714E+01   0.1011304E-03  -0.3995118E+01   0.1011304E-03  -0.3995118E+01   0.3000000E+00
   0.2487805E+02   0.9761905E+01   0.1410777E-03  -0.3850542E+01   0.1410777E-03  -0.3850542E+01   0.3000000E+00
   0.2487805E+02   0.1073810E+02   0.2062834E-07  -0.7685536E+01   0.2062834E-07  -0.7685536E+01   0.3000000E+00
   0.2487805E+02   0.1171429E+02   0.1007222E-06  -0.6996875E+01   0.1007222E-06  -0.6996875E+01   0.3000000E+00
   0.2487805E+02   0.1269048E+02   0.1697057E-06  -0.6770304E+01   0.1697057E-06  -0.6770304E+01   0.3000000E+00
   0.2487805E+02   0.1366667E+02   0.4293408E-07  -0.7367198E+01   0.4293408E-07  -0.7367198E+01   0.3000000E+00
   0.2487805E+02   0.1464286E+02   0.1915398E-04  -0.4717741E+01   0.1915398E-04  -0.4717741E+01   0.3000000E+00
   0.2487805E+02   0.1561905E+02   0.1192588E-04  -0.4923510E+01   0.1192588E-04  -0.4923510E+01   0.3000000E+00
   0.2487805E+02   0.1659524E+02   0.5478934E-05  -0.5261304E+01   0.5478934E-05  -0.5261304E+01   0.3000000E+00
   0.2487805E+02   0.1757143E+02   0.7158572E-05  -0.5145174E+01   0.7158572E-05  -0.5145174E+01   0.3000000E+00
   0.2487805E+02   0.1854762E+02   0.6581815E-05  -0.5181654E+01   0.6581815E-05  -0.5181654E+01   0.3000000E+00
   0.2487805E+02   0.1952381E+02   0.9634116E-05  -0.5016188E+01   0.9634116E-05  -0.5016188E+01   0.3000000E+00
   0.2487805E+02   0.2050000E+02   0.9634116E-05  -0.5016188E+01   0.9634116E-05  -0.5016188E+01   0.3000000E+00
   0.2736585E+02   0.0000000E+00   0.7623309E-05  -0.5117856E+01   0.7623309E-05  -0.5117856E+01   0.3000000E+00
   0.2736585E+02   0.9761905E+00   0.7239923E-05  -0.5140266E+01   0.7239923E-05  -0.5140266E+01   0.3000000E+00
   0.2736585E+02   0.1952381E+01   0.5413038E-05  -0.5266559E+01   0.5413038E-05  -0.5266559E+01   0.3000000E+00
   0.2736585E+02   0.2928571E+01   0.1092562E-04  -0.4961554E+01   0.1092562E-04  -0.4961554E+01   0.3000000E+00
   0.2736585E+02   0.3904762E+01   0.1016459E-04  -0.4992910E+01   0.1016459E-04  -0.4992910E+01   0.3000000E+00
   0.2736585E+02   0.4880952E+01   0.1892551E-04  -0.4722952E+01   0.1892551E-04  -0.4722952E+01   0.3000000E+00
   0.2736585E+02   0.5857143E+01   0.5896892E-04  -0.4229377E+01   0.5896892E-04  -0.4229377E+01   0.3000000E+00
   0.2736585E+02   0.6833333E+01   0.1403460E-03  -0.3852800E+01   0.1403460E-03  -0.3852800E+01   0.3000000E+00
   0.2736585E+02   0.7809524E+01   0.1293097E-03  -0.3888369E+01   0.1293097E-03  -0.3888369E+01   0.3000000E+00
   0.2736585E+02   0.8785714E+01   0.1767631E-03  -0.3752608E+01   0.1767631E-03  -0.3752608E+01   0.3000000E+00
   0.2736585E+02   0.9761905E+01   0.1136258E-03  -0.3944523E+01   0.1136258E-03  -0.3944523E+01   0.3000000E+00
   0.2736585E+02   0.1073810E+02   0.5461267E-07  -0.7262707E+01   0.5461267E-07  -0.7262707E+01   0.3000000E+00
   0.2736585E+02   0.1171429E+02   0.8472967E-07  -0.7071964E+01   0.8472967E-07  -0.7071964E+01   0.3000000E+00
   0.2736585E+02   0.1269048E+02   0.1007423E-06  -0.6996788E+01   0.1007423E-06  -0.6996788E+01   0.3000000E+00
   0.2736585E+02   0.1366667E+02   0.3608098E-07  -0.7442722E+01   0.3608098E-07  -0.7442722E+01   0.3000000E+00
   0.2736585E+02   0.1464286E+02   0.2245269E-04  -0.4648732E+01   0.2245269E-04  -0.4648732E+01   0.3000000E+00
   0.2736585E+02   0.1561905E+02   0.1215342E-04  -0.4915302E+01   0.1215342E-04  -0.4915302E+01   0.3000000E+00
   0.2736585E+02   0.1659524E+02   0.1435948E-04  -0.4842861E+01   0.1435948E-04  -0.4842861E+01   0.3000000E+00
   0.2736585E+02   0.1757143E+02   0.5991912E-05  -0.5222435E+01   0.5991912E-05  -0.5222435E+01   0.3000000E+00
   0.2736585E+02   0.1854762E+02   0.7848407E-05  -0.5105218E+01   0.7848407E-05  -0.5105218E+01   0.3000000E+00
   0.2736585E+02   0.1952381E+02   0.1064734E-04  -0.4972759E+01   0.1064734E-04  -0.4972759E+01   0.3000000E+00
   0.2736585E+02   0.2050000E+02   0.1064734E-04  -0.4972759E+01   0.1064734E-04  -0.4972759E+01   0.3000000E+00