title="2d vectors xz, t=    0.150E+03"
variables="x","z","vx","vz"
zone i=    21, j=    41, T="   0.150E+03"
  0.124390E+01  0.488072E+00  0.333637E-06 -0.531375E-09
  0.124390E+01  0.146422E+01  0.350691E-06  0.425819E-08
  0.124390E+01  0.244036E+01  0.191178E-06 -0.571151E-08
  0.124390E+01  0.341650E+01  0.331144E-06 -0.110949E-07
  0.124390E+01  0.439265E+01  0.176313E-06 -0.113131E-07
  0.124390E+01  0.536879E+01  0.168248E-06 -0.657958E-08
  0.124390E+01  0.634494E+01  0.426894E-07  0.377133E-08
  0.124390E+01  0.732108E+01  0.126089E-06  0.515319E-08
  0.124390E+01  0.829722E+01  0.115560E-06  0.141961E-07
  0.124390E+01  0.927337E+01  0.236676E-06  0.350548E-08
  0.124390E+01  0.102495E+02  0.575155E-06 -0.726846E-08
  0.124390E+01  0.112257E+02  0.100952E-09 -0.380033E-12
  0.124390E+01  0.122018E+02  0.185590E-10  0.525191E-11
  0.124390E+01  0.131779E+02  0.167173E-10  0.916209E-11
  0.124390E+01  0.141541E+02  0.100729E-10  0.718947E-11
  0.124390E+01  0.151302E+02  0.291274E-10 -0.406043E-11
  0.124390E+01  0.161064E+02  0.789300E-06 -0.215884E-06
  0.124390E+01  0.170825E+02  0.218022E-06 -0.532055E-07
  0.124390E+01  0.180587E+02  0.106048E-06 -0.136789E-07
  0.124390E+01  0.190348E+02  0.101744E-06 -0.352463E-08
  0.124390E+01  0.200110E+02  0.177972E-06  0.294080E-07
  0.373171E+01  0.487991E+00  0.278686E-06 -0.102004E-08
  0.373171E+01  0.146397E+01  0.303857E-06  0.140265E-07
  0.373171E+01  0.243995E+01  0.376154E-06  0.303817E-07
  0.373171E+01  0.341594E+01  0.296633E-06  0.702137E-08
  0.373171E+01  0.439192E+01  0.256133E-06 -0.100366E-08
  0.373171E+01  0.536790E+01  0.401709E-07  0.454789E-08
  0.373171E+01  0.634388E+01  0.872400E-07  0.114302E-07
  0.373171E+01  0.731986E+01  0.647532E-07  0.100647E-07
  0.373171E+01  0.829585E+01  0.102522E-06  0.280075E-08
  0.373171E+01  0.927183E+01  0.311937E-06 -0.320184E-07
  0.373171E+01  0.102478E+02  0.476447E-06 -0.283685E-07
  0.373171E+01  0.112238E+02  0.522729E-10  0.163708E-11
  0.373171E+01  0.121998E+02  0.152582E-10  0.110003E-10
  0.373171E+01  0.131758E+02  0.962987E-11  0.171279E-10
  0.373171E+01  0.141517E+02  0.123468E-10  0.172714E-10
  0.373171E+01  0.151277E+02  0.101686E-05 -0.100148E-06
  0.373171E+01  0.161037E+02  0.247066E-06 -0.968677E-08
  0.373171E+01  0.170797E+02  0.588537E-07 -0.536116E-09
  0.373171E+01  0.180557E+02  0.893314E-07  0.547172E-09
  0.373171E+01  0.190316E+02  0.881015E-07 -0.400164E-08
  0.373171E+01  0.200076E+02  0.189693E-06 -0.159393E-07
  0.621951E+01  0.487669E+00  0.273649E-06  0.222918E-07
  0.621951E+01  0.146301E+01  0.244883E-06  0.152682E-07
  0.621951E+01  0.243835E+01  0.224034E-06  0.105809E-07
  0.621951E+01  0.341368E+01  0.466490E-06  0.303156E-07
  0.621951E+01  0.438902E+01  0.188460E-06  0.312636E-07
  0.621951E+01  0.536436E+01  0.113398E-06  0.345104E-07
  0.621951E+01  0.633970E+01  0.782672E-07  0.153365E-07
  0.621951E+01  0.731504E+01  0.863854E-07  0.913359E-08
  0.621951E+01  0.829038E+01  0.314871E-06 -0.362579E-07
  0.621951E+01  0.926571E+01  0.321134E-06 -0.463334E-07
  0.621951E+01  0.102411E+02  0.299621E-06 -0.202212E-07
  0.621951E+01  0.112164E+02  0.999359E-11  0.107793E-10
  0.621951E+01  0.121917E+02  0.148497E-10  0.146595E-10
  0.621951E+01  0.131671E+02  0.134376E-10  0.128159E-10
  0.621951E+01  0.141424E+02  0.245473E-10  0.625886E-11
  0.621951E+01  0.151177E+02  0.535250E-06  0.812291E-07
  0.621951E+01  0.160931E+02  0.531046E-06  0.166175E-06
  0.621951E+01  0.170684E+02  0.224193E-06  0.595928E-07
  0.621951E+01  0.180438E+02  0.107551E-06  0.976267E-08
  0.621951E+01  0.190191E+02  0.178599E-06 -0.180632E-07
  0.621951E+01  0.199944E+02  0.216272E-06 -0.265543E-07
  0.870732E+01  0.487426E+00  0.149069E-06  0.110167E-07
  0.870732E+01  0.146228E+01  0.367068E-06  0.240181E-07
  0.870732E+01  0.243713E+01  0.258169E-06  0.769991E-08
  0.870732E+01  0.341198E+01  0.344978E-06  0.217387E-07
  0.870732E+01  0.438684E+01  0.231687E-06  0.307420E-07
  0.870732E+01  0.536169E+01  0.111120E-06  0.629325E-08
  0.870732E+01  0.633654E+01  0.144543E-06 -0.249875E-08
  0.870732E+01  0.731140E+01  0.156470E-06 -0.197092E-07
  0.870732E+01  0.828625E+01  0.320696E-06 -0.131180E-07
  0.870732E+01  0.926110E+01  0.350866E-06 -0.141519E-07
  0.870732E+01  0.102360E+02  0.223778E-06 -0.188609E-07
  0.870732E+01  0.112108E+02  0.130611E-10  0.440114E-10
  0.870732E+01  0.121857E+02  0.270433E-10  0.388470E-10
  0.870732E+01  0.131605E+02  0.646228E-10  0.764666E-10
  0.870732E+01  0.141354E+02  0.110410E-09  0.547582E-10
  0.870732E+01  0.151102E+02  0.351462E-06  0.866349E-08
  0.870732E+01  0.160851E+02  0.548507E-06  0.464654E-07
  0.870732E+01  0.170599E+02  0.463894E-06  0.828773E-07
  0.870732E+01  0.180348E+02  0.249981E-06  0.321890E-07
  0.870732E+01  0.190096E+02  0.230817E-06 -0.587664E-08
  0.870732E+01  0.199845E+02  0.186207E-06 -0.141813E-07
  0.111951E+02  0.487153E+00  0.126623E-06 -0.219271E-08
  0.111951E+02  0.146146E+01  0.372081E-06  0.550588E-08
  0.111951E+02  0.243577E+01  0.300315E-06  0.260291E-07
  0.111951E+02  0.341007E+01  0.341375E-06  0.110781E-07
  0.111951E+02  0.438438E+01  0.327847E-06 -0.318253E-07
  0.111951E+02  0.535868E+01  0.144335E-06 -0.336522E-07
  0.111951E+02  0.633299E+01  0.117894E-06 -0.310266E-07
  0.111951E+02  0.730730E+01  0.198208E-06 -0.445058E-07
  0.111951E+02  0.828160E+01  0.216440E-06 -0.409271E-07
  0.111951E+02  0.925591E+01  0.525928E-06 -0.216110E-08
  0.111951E+02  0.102302E+02  0.177398E-06  0.131810E-07
  0.111951E+02  0.112045E+02  0.106083E-11  0.543663E-10
  0.111951E+02  0.121788E+02 -0.212834E-10  0.190470E-09
  0.111951E+02  0.131531E+02  0.317217E-10  0.321899E-09
  0.111951E+02  0.141274E+02  0.161238E-09  0.334257E-09
  0.111951E+02  0.151017E+02  0.494680E-06 -0.298020E-07
  0.111951E+02  0.160761E+02  0.415886E-06 -0.406593E-07
  0.111951E+02  0.170504E+02  0.305808E-06 -0.231872E-07
  0.111951E+02  0.180247E+02  0.358442E-06 -0.277149E-07
  0.111951E+02  0.189990E+02  0.302326E-06 -0.234986E-07
  0.111951E+02  0.199733E+02  0.220597E-06 -0.213233E-07
  0.136829E+02  0.486986E+00  0.179057E-06 -0.377845E-08
  0.136829E+02  0.146096E+01  0.368964E-06 -0.211650E-07
  0.136829E+02  0.243493E+01  0.207441E-06 -0.316308E-07
  0.136829E+02  0.340890E+01  0.543813E-06 -0.604269E-07
  0.136829E+02  0.438288E+01  0.357002E-06 -0.662297E-08
  0.136829E+02  0.535685E+01  0.122670E-06 -0.151206E-09
  0.136829E+02  0.633082E+01  0.228728E-06 -0.219890E-07
  0.136829E+02  0.730480E+01  0.213145E-06 -0.296977E-07
  0.136829E+02  0.827877E+01  0.272775E-06 -0.450934E-07
  0.136829E+02  0.925274E+01  0.191322E-06 -0.236999E-07
  0.136829E+02  0.102267E+02  0.347695E-06  0.123793E-07
  0.136829E+02  0.112007E+02  0.111722E-09  0.692259E-09
  0.136829E+02  0.121747E+02  0.926282E-10  0.531322E-09
  0.136829E+02  0.131486E+02  0.624212E-10  0.312194E-09
  0.136829E+02  0.141226E+02  0.524222E-10  0.227307E-09
  0.136829E+02  0.150966E+02  0.560027E-06 -0.745589E-08
  0.136829E+02  0.160706E+02  0.511264E-06 -0.488969E-07
  0.136829E+02  0.170445E+02  0.525911E-06 -0.132174E-06
  0.136829E+02  0.180185E+02  0.285970E-06 -0.123682E-06
  0.136829E+02  0.189925E+02  0.266266E-06 -0.657652E-07
  0.136829E+02  0.199664E+02  0.161330E-06 -0.343810E-07
  0.161707E+02  0.486827E+00  0.201708E-06 -0.868178E-08
  0.161707E+02  0.146048E+01  0.474575E-06  0.425937E-08
  0.161707E+02  0.243414E+01  0.460892E-06 -0.746220E-08
  0.161707E+02  0.340779E+01  0.331293E-06  0.462369E-08
  0.161707E+02  0.438144E+01  0.225088E-06  0.222136E-07
  0.161707E+02  0.535510E+01  0.300525E-06  0.372502E-07
  0.161707E+02  0.632875E+01  0.353095E-06 -0.410973E-08
  0.161707E+02  0.730241E+01  0.319322E-06 -0.249670E-07
  0.161707E+02  0.827606E+01  0.352994E-06 -0.112139E-07
  0.161707E+02  0.924972E+01  0.153654E-06 -0.138658E-07
  0.161707E+02  0.102234E+02  0.313362E-06 -0.154832E-07
  0.161707E+02  0.111970E+02  0.628232E-09  0.125271E-08
  0.161707E+02  0.121707E+02  0.149222E-09  0.435619E-09
  0.161707E+02  0.131443E+02  0.407200E-09  0.861898E-09
  0.161707E+02  0.141180E+02  0.201135E-09  0.409473E-09
  0.161707E+02  0.150916E+02  0.550149E-06 -0.407377E-07
  0.161707E+02  0.160653E+02  0.626522E-06 -0.113352E-06
  0.161707E+02  0.170390E+02  0.513097E-06 -0.800886E-07
  0.161707E+02  0.180126E+02  0.172249E-06 -0.390102E-07
  0.161707E+02  0.189863E+02  0.236148E-06 -0.336082E-07
  0.161707E+02  0.199599E+02  0.966983E-07 -0.155280E-07
  0.186585E+02  0.486655E+00  0.228101E-06  0.107571E-07
  0.186585E+02  0.145997E+01  0.262916E-06  0.319445E-07
  0.186585E+02  0.243328E+01  0.437868E-06  0.686674E-07
  0.186585E+02  0.340659E+01  0.309938E-06  0.896285E-07
  0.186585E+02  0.437990E+01  0.175146E-06  0.908166E-07
  0.186585E+02  0.535321E+01  0.276525E-06  0.890239E-07
  0.186585E+02  0.632652E+01  0.601980E-06  0.749037E-07
  0.186585E+02  0.729983E+01  0.291905E-06  0.183759E-07
  0.186585E+02  0.827314E+01  0.339736E-06  0.122597E-07
  0.186585E+02  0.924645E+01  0.291155E-06  0.431379E-08
  0.186585E+02  0.102198E+02  0.209470E-06 -0.137917E-08
  0.186585E+02  0.111931E+02  0.305893E-08  0.570702E-08
  0.186585E+02  0.121664E+02  0.142313E-08  0.316852E-08
  0.186585E+02  0.131397E+02  0.117360E-08  0.321770E-08
  0.186585E+02  0.141130E+02  0.123040E-08  0.219261E-08
  0.186585E+02  0.150863E+02  0.988844E-06 -0.242998E-07
  0.186585E+02  0.160596E+02  0.498838E-06 -0.266202E-07
  0.186585E+02  0.170329E+02  0.241755E-06 -0.234236E-07
  0.186585E+02  0.180062E+02  0.198561E-06 -0.400306E-07
  0.186585E+02  0.189796E+02  0.147925E-06 -0.344257E-07
  0.186585E+02  0.199529E+02  0.977550E-07 -0.163548E-07
  0.211463E+02  0.486487E+00  0.111984E-06  0.524256E-08
  0.211463E+02  0.145946E+01  0.228030E-06  0.277904E-07
  0.211463E+02  0.243243E+01  0.246920E-06  0.732954E-07
  0.211463E+02  0.340541E+01  0.113230E-06  0.598308E-07
  0.211463E+02  0.437838E+01  0.112763E-06  0.585514E-07
  0.211463E+02  0.535135E+01  0.253552E-06  0.767875E-07
  0.211463E+02  0.632433E+01  0.625420E-06  0.847515E-07
  0.211463E+02  0.729730E+01  0.568341E-06  0.631565E-07
  0.211463E+02  0.827027E+01  0.378874E-06  0.233694E-07
  0.211463E+02  0.924325E+01  0.316731E-06  0.244934E-07
  0.211463E+02  0.102162E+02  0.232591E-06  0.987712E-08
  0.211463E+02  0.111892E+02  0.559246E-09  0.181647E-08
  0.211463E+02  0.121622E+02  0.239808E-08  0.387192E-08
  0.211463E+02  0.131351E+02  0.173764E-08  0.422108E-08
  0.211463E+02  0.141081E+02  0.237108E-08  0.295403E-08
  0.211463E+02  0.150811E+02  0.778374E-06  0.265028E-08
  0.211463E+02  0.160541E+02  0.476623E-06  0.186645E-07
  0.211463E+02  0.170270E+02  0.385600E-06  0.342205E-07
  0.211463E+02  0.180000E+02  0.226288E-06  0.447535E-08
  0.211463E+02  0.189730E+02  0.116700E-06 -0.137760E-07
  0.211463E+02  0.199460E+02  0.111983E-06 -0.178207E-07
  0.236341E+02  0.486192E+00  0.855823E-07 -0.275038E-08
  0.236341E+02  0.145858E+01  0.985970E-07  0.294140E-08
  0.236341E+02  0.243096E+01  0.610491E-07  0.216549E-07
  0.236341E+02  0.340335E+01  0.914459E-07  0.592049E-07
  0.236341E+02  0.437573E+01  0.123838E-06  0.939310E-07
  0.236341E+02  0.534812E+01  0.281023E-06  0.135577E-06
  0.236341E+02  0.632050E+01  0.818334E-06  0.229039E-06
  0.236341E+02  0.729289E+01  0.699885E-06  0.115836E-06
  0.236341E+02  0.826527E+01  0.429134E-06  0.444371E-07
  0.236341E+02  0.923766E+01  0.295440E-06  0.297038E-07
  0.236341E+02  0.102100E+02  0.463740E-06  0.283304E-07
  0.236341E+02  0.111824E+02  0.666205E-09  0.344031E-08
  0.236341E+02  0.121548E+02  0.140648E-08  0.198679E-08
  0.236341E+02  0.131272E+02  0.978234E-09  0.122243E-08
  0.236341E+02  0.140996E+02  0.344541E-08  0.326391E-08
  0.236341E+02  0.150720E+02  0.751509E-06  0.121773E-07
  0.236341E+02  0.160444E+02  0.288098E-06  0.612445E-08
  0.236341E+02  0.170167E+02  0.270865E-06  0.189252E-07
  0.236341E+02  0.179891E+02  0.391115E-06  0.616203E-07
  0.236341E+02  0.189615E+02  0.186618E-06  0.325697E-07
  0.236341E+02  0.199339E+02  0.150493E-06  0.200450E-09
  0.261220E+02  0.485516E+00  0.840537E-07  0.713558E-09
  0.261220E+02  0.145655E+01  0.559436E-07  0.208621E-08
  0.261220E+02  0.242758E+01  0.219708E-07  0.214215E-08
  0.261220E+02  0.339861E+01  0.643552E-07 -0.389131E-09
  0.261220E+02  0.436964E+01  0.669287E-07  0.327585E-08
  0.261220E+02  0.534068E+01  0.164359E-06  0.211727E-07
  0.261220E+02  0.631171E+01  0.359447E-06  0.884305E-07
  0.261220E+02  0.728274E+01  0.990153E-06  0.223006E-06
  0.261220E+02  0.825377E+01  0.105853E-05  0.169723E-06
  0.261220E+02  0.922481E+01  0.417730E-06  0.286541E-07
  0.261220E+02  0.101958E+02  0.589821E-06 -0.462159E-08
  0.261220E+02  0.111669E+02  0.196860E-09  0.162906E-08
  0.261220E+02  0.121379E+02  0.161253E-08  0.408505E-08
  0.261220E+02  0.131089E+02  0.270610E-08  0.406291E-08
  0.261220E+02  0.140800E+02  0.113448E-08  0.263843E-08
  0.261220E+02  0.150510E+02  0.735122E-06  0.127852E-07
  0.261220E+02  0.160220E+02  0.456936E-06  0.299592E-07
  0.261220E+02  0.169931E+02  0.215203E-06  0.135271E-07
  0.261220E+02  0.179641E+02  0.279166E-06  0.261413E-07
  0.261220E+02  0.189351E+02  0.240916E-06  0.520310E-07
  0.261220E+02  0.199062E+02  0.332451E-06  0.184715E-07
  0.286098E+02  0.484992E+00  0.889371E-07  0.223936E-08
  0.286098E+02  0.145498E+01  0.798148E-07  0.391657E-08
  0.286098E+02  0.242496E+01  0.576903E-07 -0.337914E-08
  0.286098E+02  0.339495E+01  0.114573E-06 -0.215396E-07
  0.286098E+02  0.436493E+01  0.937155E-07 -0.463910E-07
  0.286098E+02  0.533492E+01  0.140839E-06 -0.563568E-07
  0.286098E+02  0.630490E+01  0.363119E-06 -0.117409E-06
  0.286098E+02  0.727489E+01  0.769666E-06 -0.914881E-07
  0.286098E+02  0.824487E+01  0.700416E-06  0.730021E-07
  0.286098E+02  0.921486E+01  0.973975E-06  0.142004E-06
  0.286098E+02  0.101848E+02  0.658308E-06  0.316710E-07
  0.286098E+02  0.111548E+02  0.378985E-09  0.523111E-08
  0.286098E+02  0.121248E+02  0.566992E-09  0.339508E-08
  0.286098E+02  0.130948E+02  0.150749E-08  0.458559E-08
  0.286098E+02  0.140648E+02  0.106782E-08  0.375861E-08
  0.286098E+02  0.150348E+02  0.798250E-06  0.697670E-08
  0.286098E+02  0.160047E+02  0.424719E-06  0.211440E-07
  0.286098E+02  0.169747E+02  0.480591E-06  0.307131E-07
  0.286098E+02  0.179447E+02  0.198637E-06  0.183797E-07
  0.286098E+02  0.189147E+02  0.263835E-06  0.298121E-07
  0.286098E+02  0.198847E+02  0.357823E-06  0.511543E-08
  0.310976E+02  0.484310E+00  0.938048E-07 -0.416520E-09
  0.310976E+02  0.145293E+01  0.725132E-07  0.200352E-08
  0.310976E+02  0.242155E+01  0.121269E-06 -0.100273E-07
  0.310976E+02  0.339017E+01  0.300697E-06 -0.693646E-07
  0.310976E+02  0.435879E+01  0.135842E-06 -0.789992E-07
  0.310976E+02  0.532741E+01  0.321305E-06 -0.168444E-06
  0.310976E+02  0.629602E+01  0.318050E-06 -0.140589E-06
  0.310976E+02  0.726464E+01  0.423730E-06 -0.984486E-07
  0.310976E+02  0.823326E+01  0.255170E-06 -0.603689E-07
  0.310976E+02  0.920188E+01  0.813982E-06 -0.417536E-07
  0.310976E+02  0.101705E+02  0.760647E-06  0.347187E-08
  0.310976E+02  0.111391E+02  0.120211E-08  0.818055E-08
  0.310976E+02  0.121077E+02  0.619728E-08  0.800369E-08
  0.310976E+02  0.130764E+02  0.141196E-08  0.196839E-08
  0.310976E+02  0.140450E+02  0.137726E-08  0.322903E-08
  0.310976E+02  0.150136E+02  0.754897E-06  0.339746E-07
  0.310976E+02  0.159822E+02  0.660397E-06  0.447085E-07
  0.310976E+02  0.169508E+02  0.384051E-06  0.393227E-07
  0.310976E+02  0.179195E+02  0.245639E-06  0.541936E-07
  0.310976E+02  0.188881E+02  0.235513E-06  0.415902E-07
  0.310976E+02  0.198567E+02  0.604431E-06  0.159157E-07
  0.335854E+02  0.483860E+00  0.944670E-07 -0.146457E-08
  0.335854E+02  0.145158E+01  0.785347E-07 -0.559068E-08
  0.335854E+02  0.241930E+01  0.372513E-06 -0.516554E-07
  0.335854E+02  0.338702E+01  0.467438E-06 -0.114809E-06
  0.335854E+02  0.435474E+01  0.458506E-06 -0.179682E-06
  0.335854E+02  0.532246E+01  0.320464E-06 -0.182162E-06
  0.335854E+02  0.629018E+01  0.339498E-06 -0.170355E-06
  0.335854E+02  0.725790E+01  0.389012E-06 -0.188256E-06
  0.335854E+02  0.822562E+01  0.290228E-06 -0.162041E-06
  0.335854E+02  0.919334E+01  0.538339E-06 -0.107600E-06
  0.335854E+02  0.101611E+02  0.454028E-06 -0.175052E-07
  0.335854E+02  0.111288E+02  0.252750E-09  0.477237E-08
  0.335854E+02  0.120965E+02  0.162510E-08  0.655485E-08
  0.335854E+02  0.130642E+02  0.615594E-08  0.649188E-08
  0.335854E+02  0.140319E+02  0.316139E-08  0.398763E-08
  0.335854E+02  0.149997E+02  0.715898E-06  0.432559E-07
  0.335854E+02  0.159674E+02  0.686693E-06  0.119990E-06
  0.335854E+02  0.169351E+02  0.423045E-06  0.120683E-06
  0.335854E+02  0.179028E+02  0.255519E-06  0.781089E-07
  0.335854E+02  0.188705E+02  0.314247E-06  0.570829E-07
  0.335854E+02  0.198383E+02  0.948754E-06 -0.453585E-08
  0.360732E+02  0.483716E+00  0.228179E-06 -0.240025E-07
  0.360732E+02  0.145115E+01  0.137923E-06 -0.633516E-07
  0.360732E+02  0.241858E+01  0.616131E-06 -0.144832E-06
  0.360732E+02  0.338601E+01  0.434899E-06 -0.142999E-06
  0.360732E+02  0.435344E+01  0.569237E-06 -0.105955E-06
  0.360732E+02  0.532087E+01  0.366308E-06 -0.103855E-06
  0.360732E+02  0.628831E+01  0.467019E-06 -0.153496E-06
  0.360732E+02  0.725574E+01  0.209817E-06 -0.654807E-07
  0.360732E+02  0.822317E+01  0.227296E-06 -0.184216E-07
  0.360732E+02  0.919060E+01  0.255269E-06  0.125475E-07
  0.360732E+02  0.101580E+02  0.391154E-06  0.232747E-07
  0.360732E+02  0.111255E+02  0.337454E-08  0.280499E-07
  0.360732E+02  0.120929E+02  0.211276E-08  0.132225E-07
  0.360732E+02  0.130603E+02  0.172659E-08  0.212051E-07
  0.360732E+02  0.140278E+02  0.148191E-07  0.176512E-07
  0.360732E+02  0.149952E+02  0.443583E-06  0.248615E-07
  0.360732E+02  0.159626E+02  0.459363E-06  0.706772E-07
  0.360732E+02  0.169301E+02  0.457818E-06  0.885237E-07
  0.360732E+02  0.178975E+02  0.463593E-06  0.242071E-07
  0.360732E+02  0.188649E+02  0.503343E-06 -0.632850E-07
  0.360732E+02  0.198323E+02  0.829154E-06 -0.621456E-07
  0.385610E+02  0.483568E+00  0.313784E-06 -0.163350E-07
  0.385610E+02  0.145070E+01  0.270114E-06 -0.530168E-07
  0.385610E+02  0.241784E+01  0.621454E-06 -0.912351E-07
  0.385610E+02  0.338497E+01  0.370735E-06 -0.373702E-07
  0.385610E+02  0.435211E+01  0.302615E-06  0.259294E-07
  0.385610E+02  0.531925E+01  0.504102E-06  0.769777E-07
  0.385610E+02  0.628638E+01  0.420036E-06  0.101718E-06
  0.385610E+02  0.725352E+01  0.188210E-06  0.585854E-07
  0.385610E+02  0.822065E+01  0.131820E-06  0.489020E-07
  0.385610E+02  0.918779E+01  0.305308E-06  0.686273E-07
  0.385610E+02  0.101549E+02  0.398933E-06  0.610753E-07
  0.385610E+02  0.111221E+02  0.664184E-09  0.549232E-07
  0.385610E+02  0.120892E+02 -0.259943E-08  0.742566E-07
  0.385610E+02  0.130563E+02 -0.486558E-09  0.456643E-07
  0.385610E+02  0.140235E+02  0.102011E-07  0.637967E-07
  0.385610E+02  0.149906E+02  0.545704E-06  0.119165E-06
  0.385610E+02  0.159577E+02  0.357214E-06  0.839255E-07
  0.385610E+02  0.169249E+02  0.694257E-06  0.296542E-07
  0.385610E+02  0.178920E+02  0.619417E-06 -0.442070E-07
  0.385610E+02  0.188591E+02  0.552259E-06 -0.617709E-07
  0.385610E+02  0.198263E+02  0.609535E-06 -0.358454E-07
  0.410488E+02  0.483442E+00  0.395309E-06  0.389357E-09
  0.410488E+02  0.145032E+01  0.412871E-06  0.344990E-08
  0.410488E+02  0.241721E+01  0.522817E-06  0.714717E-07
  0.410488E+02  0.338409E+01  0.242184E-06  0.671070E-07
  0.410488E+02  0.435097E+01  0.243637E-06  0.837156E-07
  0.410488E+02  0.531786E+01  0.382692E-06  0.118587E-06
  0.410488E+02  0.628474E+01  0.321108E-06  0.149688E-06
  0.410488E+02  0.725162E+01  0.403789E-06  0.183400E-06
  0.410488E+02  0.821851E+01  0.304592E-06  0.100343E-06
  0.410488E+02  0.918539E+01  0.279406E-06  0.598510E-07
  0.410488E+02  0.101523E+02  0.428925E-06  0.555791E-07
  0.410488E+02  0.111192E+02 -0.197802E-08  0.544255E-07
  0.410488E+02  0.120860E+02 -0.640996E-08  0.414268E-07
  0.410488E+02  0.130529E+02 -0.755195E-08  0.570148E-07
  0.410488E+02  0.140198E+02 -0.304999E-09  0.376921E-07
  0.410488E+02  0.149867E+02  0.269921E-06  0.487832E-07
  0.410488E+02  0.159536E+02  0.530281E-06  0.645285E-07
  0.410488E+02  0.169205E+02  0.103236E-05 -0.354174E-07
  0.410488E+02  0.178873E+02  0.856017E-06 -0.108376E-06
  0.410488E+02  0.188542E+02  0.514419E-06 -0.826084E-07
  0.410488E+02  0.198211E+02  0.424437E-06 -0.460822E-07
  0.435366E+02  0.483347E+00  0.317097E-06  0.173507E-07
  0.435366E+02  0.145004E+01  0.358587E-06  0.744623E-07
  0.435366E+02  0.241674E+01  0.252431E-06  0.989396E-07
  0.435366E+02  0.338343E+01  0.448280E-06  0.184955E-06
  0.435366E+02  0.435012E+01  0.216059E-06  0.131930E-06
  0.435366E+02  0.531682E+01  0.349279E-06  0.156078E-06
  0.435366E+02  0.628351E+01  0.300180E-06  0.139009E-06
  0.435366E+02  0.725021E+01  0.393575E-06  0.175230E-06
  0.435366E+02  0.821690E+01  0.548308E-06  0.202324E-06
  0.435366E+02  0.918360E+01  0.328492E-06  0.102936E-06
  0.435366E+02  0.101503E+02  0.546785E-06  0.521131E-07
  0.435366E+02  0.111170E+02 -0.185159E-09  0.114090E-07
  0.435366E+02  0.120837E+02 -0.151544E-08  0.967616E-08
  0.435366E+02  0.130504E+02 -0.498974E-08  0.130558E-07
  0.435366E+02  0.140171E+02 -0.329552E-09  0.738897E-08
  0.435366E+02  0.149838E+02  0.294552E-06 -0.169236E-07
  0.435366E+02  0.159505E+02  0.748415E-06 -0.939803E-07
  0.435366E+02  0.169172E+02  0.107760E-05 -0.129475E-06
  0.435366E+02  0.178838E+02  0.423087E-06 -0.116829E-06
  0.435366E+02  0.188505E+02  0.460073E-06 -0.755942E-07
  0.435366E+02  0.198172E+02  0.230483E-06 -0.177454E-07
  0.460244E+02  0.483234E+00  0.219544E-06  0.523409E-08
  0.460244E+02  0.144970E+01  0.181811E-06  0.196194E-07
  0.460244E+02  0.241617E+01  0.252591E-06  0.480437E-07
  0.460244E+02  0.338264E+01  0.272690E-06  0.680455E-07
  0.460244E+02  0.434911E+01  0.298581E-06  0.119772E-06
  0.460244E+02  0.531557E+01  0.281173E-06  0.121710E-06
  0.460244E+02  0.628204E+01  0.412899E-06  0.140908E-06
  0.460244E+02  0.724851E+01  0.236175E-06  0.102742E-06
  0.460244E+02  0.821498E+01  0.361507E-06  0.134913E-06
  0.460244E+02  0.918145E+01  0.486309E-06  0.146107E-06
  0.460244E+02  0.101479E+02  0.653042E-06  0.519998E-07
  0.460244E+02  0.111144E+02  0.724201E-10  0.420283E-08
  0.460244E+02  0.120809E+02 -0.156296E-08  0.620446E-08
  0.460244E+02  0.130473E+02 -0.487373E-09  0.239463E-08
  0.460244E+02  0.140138E+02  0.588979E-11  0.306662E-08
  0.460244E+02  0.149803E+02  0.618135E-06 -0.602544E-08
  0.460244E+02  0.159467E+02  0.562461E-06 -0.504201E-07
  0.460244E+02  0.169132E+02  0.124575E-05 -0.926816E-07
  0.460244E+02  0.178797E+02  0.434129E-06  0.283266E-07
  0.460244E+02  0.188461E+02  0.239582E-06  0.175771E-07
  0.460244E+02  0.198126E+02  0.326655E-06 -0.592267E-08
  0.485122E+02  0.483041E+00  0.228273E-06  0.328833E-08
  0.485122E+02  0.144912E+01  0.148675E-06 -0.565659E-09
  0.485122E+02  0.241520E+01  0.217255E-06 -0.823455E-08
  0.485122E+02  0.338129E+01  0.149154E-06  0.304635E-08
  0.485122E+02  0.434737E+01  0.225841E-06  0.220200E-07
  0.485122E+02  0.531345E+01  0.158813E-06  0.426853E-07
  0.485122E+02  0.627953E+01  0.294368E-06  0.773240E-07
  0.485122E+02  0.724561E+01  0.214294E-06  0.918683E-07
  0.485122E+02  0.821170E+01  0.239734E-06  0.521515E-07
  0.485122E+02  0.917778E+01  0.290854E-06  0.253138E-07
  0.485122E+02  0.101439E+02  0.565117E-06  0.208267E-07
  0.485122E+02  0.111099E+02  0.269805E-10  0.506276E-09
  0.485122E+02  0.120760E+02  0.152659E-09  0.874387E-09
  0.485122E+02  0.130421E+02  0.580455E-10  0.892913E-09
  0.485122E+02  0.140082E+02  0.206127E-10  0.576128E-09
  0.485122E+02  0.149743E+02  0.578450E-06 -0.609481E-07
  0.485122E+02  0.159404E+02  0.100993E-05 -0.118303E-06
  0.485122E+02  0.169064E+02  0.683809E-06  0.257568E-07
  0.485122E+02  0.178725E+02  0.320240E-06  0.746453E-07
  0.485122E+02  0.188386E+02  0.519375E-06  0.641207E-07
  0.485122E+02  0.198047E+02  0.429643E-06 -0.219149E-08
  0.510000E+02  0.482791E+00  0.186668E-06 -0.127170E-08
  0.510000E+02  0.144837E+01  0.209189E-06 -0.136360E-07
  0.510000E+02  0.241395E+01  0.171530E-06 -0.232066E-07
  0.510000E+02  0.337954E+01  0.125100E-06 -0.266860E-07
  0.510000E+02  0.434512E+01  0.110468E-06 -0.113306E-07
  0.510000E+02  0.531070E+01  0.129653E-06  0.349172E-08
  0.510000E+02  0.627628E+01  0.123101E-06  0.604951E-08
  0.510000E+02  0.724186E+01  0.165300E-06  0.992569E-08
  0.510000E+02  0.820744E+01  0.334995E-06 -0.732500E-08
  0.510000E+02  0.917303E+01  0.251649E-06 -0.317005E-07
  0.510000E+02  0.101386E+02  0.358713E-06 -0.222668E-07
  0.510000E+02  0.111042E+02  0.939865E-11  0.636425E-09
  0.510000E+02  0.120698E+02  0.280546E-10  0.587339E-09
  0.510000E+02  0.130354E+02  0.188851E-09  0.678188E-09
  0.510000E+02  0.140009E+02  0.395864E-10  0.333858E-09
  0.510000E+02  0.149665E+02  0.111327E-05 -0.496409E-07
  0.510000E+02  0.159321E+02  0.461788E-06  0.249634E-07
  0.510000E+02  0.168977E+02  0.560732E-06  0.788612E-07
  0.510000E+02  0.178633E+02  0.253439E-06  0.320176E-07
  0.510000E+02  0.188288E+02  0.498265E-06  0.131815E-07
  0.510000E+02  0.197944E+02  0.369052E-06  0.445543E-08
  0.534878E+02  0.482133E+00  0.198540E-06 -0.522781E-08
  0.534878E+02  0.144640E+01  0.226213E-06 -0.165918E-07
  0.534878E+02  0.241067E+01  0.188925E-06 -0.106702E-07
  0.534878E+02  0.337493E+01  0.120243E-06 -0.284010E-08
  0.534878E+02  0.433920E+01  0.881543E-07 -0.123428E-07
  0.534878E+02  0.530347E+01  0.109050E-06 -0.222029E-07
  0.534878E+02  0.626774E+01  0.150289E-06 -0.284850E-07
  0.534878E+02  0.723200E+01  0.171958E-06 -0.390691E-07
  0.534878E+02  0.819627E+01  0.247534E-06 -0.446016E-07
  0.534878E+02  0.916054E+01  0.204116E-06 -0.287055E-07
  0.534878E+02  0.101248E+02  0.158309E-06 -0.104531E-07
  0.534878E+02  0.110891E+02  0.128385E-09  0.813077E-09
  0.534878E+02  0.120533E+02  0.184915E-10  0.595260E-09
  0.534878E+02  0.130176E+02  0.906769E-10  0.686120E-09
  0.534878E+02  0.139819E+02  0.147276E-09  0.981763E-09
  0.534878E+02  0.149461E+02  0.700517E-06  0.527534E-07
  0.534878E+02  0.159104E+02  0.375268E-06  0.733517E-07
  0.534878E+02  0.168747E+02  0.378235E-06  0.527588E-07
  0.534878E+02  0.178389E+02  0.451827E-06  0.184522E-07
  0.534878E+02  0.188032E+02  0.242052E-06 -0.195376E-07
  0.534878E+02  0.197675E+02  0.402132E-06 -0.100845E-07
  0.559756E+02  0.481548E+00  0.207514E-06 -0.240228E-08
  0.559756E+02  0.144464E+01  0.209813E-06  0.716435E-08
  0.559756E+02  0.240774E+01  0.935657E-07  0.166651E-07
  0.559756E+02  0.337084E+01  0.139254E-06  0.169934E-07
  0.559756E+02  0.433393E+01  0.169873E-06  0.222794E-08
  0.559756E+02  0.529703E+01  0.152387E-06 -0.289081E-07
  0.559756E+02  0.626012E+01  0.156876E-06 -0.460180E-07
  0.559756E+02  0.722322E+01  0.272406E-06 -0.602869E-07
  0.559756E+02  0.818631E+01  0.222890E-06 -0.525480E-07
  0.559756E+02  0.914941E+01  0.166261E-06 -0.260738E-07
  0.559756E+02  0.101125E+02  0.111967E-06 -0.592973E-08
  0.559756E+02  0.110756E+02  0.101522E-09  0.466437E-09
  0.559756E+02  0.120387E+02 -0.969642E-11  0.589538E-09
  0.559756E+02  0.130018E+02 -0.233875E-10  0.466286E-09
  0.559756E+02  0.139649E+02  0.797052E-11  0.325685E-09
  0.559756E+02  0.149280E+02  0.366824E-06  0.355701E-07
  0.559756E+02  0.158911E+02  0.350580E-06  0.715836E-07
  0.559756E+02  0.168542E+02  0.495382E-06  0.169853E-07
  0.559756E+02  0.178173E+02  0.575668E-06 -0.454577E-07
  0.559756E+02  0.187804E+02  0.255287E-06 -0.562601E-07
  0.559756E+02  0.197435E+02  0.311295E-06 -0.581637E-07
  0.584634E+02  0.481252E+00  0.235294E-06  0.141044E-08
  0.584634E+02  0.144376E+01  0.129409E-06  0.998702E-08
  0.584634E+02  0.240626E+01  0.113586E-06  0.230007E-07
  0.584634E+02  0.336877E+01  0.195051E-06  0.351467E-07
  0.584634E+02  0.433127E+01  0.160018E-06  0.241645E-07
  0.584634E+02  0.529378E+01  0.358281E-06  0.504307E-08
  0.584634E+02  0.625628E+01  0.193292E-06 -0.390908E-07
  0.584634E+02  0.721879E+01  0.269574E-06 -0.649159E-07
  0.584634E+02  0.818129E+01  0.227745E-06 -0.521548E-07
  0.584634E+02  0.914380E+01  0.141752E-06 -0.898520E-08
  0.584634E+02  0.101063E+02  0.137969E-06  0.647240E-09
  0.584634E+02  0.110688E+02  0.790952E-10  0.284382E-09
  0.584634E+02  0.120313E+02  0.108936E-10  0.249943E-09
  0.584634E+02  0.129938E+02  0.410693E-10  0.298584E-09
  0.584634E+02  0.139563E+02  0.357137E-10  0.234199E-09
  0.584634E+02  0.149188E+02  0.211472E-06  0.382578E-08
  0.584634E+02  0.158813E+02  0.397377E-06 -0.220967E-07
  0.584634E+02  0.168438E+02  0.691260E-06 -0.935682E-07
  0.584634E+02  0.178063E+02  0.517328E-06 -0.948924E-07
  0.584634E+02  0.187688E+02  0.404092E-06 -0.657622E-07
  0.584634E+02  0.197313E+02  0.106637E-06 -0.177181E-07
  0.609512E+02  0.481020E+00  0.231539E-06  0.466326E-08
  0.609512E+02  0.144306E+01  0.174770E-06  0.502095E-08
  0.609512E+02  0.240510E+01  0.121107E-06  0.224494E-09
  0.609512E+02  0.336714E+01  0.146334E-06  0.805508E-08
  0.609512E+02  0.432918E+01  0.237824E-06  0.529897E-08
  0.609512E+02  0.529122E+01  0.293265E-06 -0.356385E-08
  0.609512E+02  0.625326E+01  0.454996E-06 -0.163738E-07
  0.609512E+02  0.721531E+01  0.254910E-06 -0.180056E-07
  0.609512E+02  0.817735E+01  0.158036E-06 -0.103259E-07
  0.609512E+02  0.913939E+01  0.159280E-06 -0.126938E-07
  0.609512E+02  0.101014E+02  0.221769E-06 -0.612051E-08
  0.609512E+02  0.110635E+02  0.256257E-09  0.538478E-09
  0.609512E+02  0.120255E+02  0.877470E-10  0.470855E-09
  0.609512E+02  0.129875E+02  0.202838E-10  0.238247E-09
  0.609512E+02  0.139496E+02  0.366260E-10  0.295389E-09
  0.609512E+02  0.149116E+02  0.288096E-06 -0.194944E-07
  0.609512E+02  0.158737E+02  0.686179E-06 -0.773301E-07
  0.609512E+02  0.168357E+02  0.753281E-06 -0.913884E-07
  0.609512E+02  0.177978E+02  0.417423E-06 -0.606989E-07
  0.609512E+02  0.187598E+02  0.733174E-07 -0.118691E-07