title="2d vectors xy, t=    0.150E+03"
variables="x","y","vx","vy"
zone i=    41, j=    41, T="   0.150E+03"
  0.124390E+01  0.124390E+01  0.333637E-06  0.104852E-07
  0.124390E+01  0.373171E+01  0.153703E-06  0.735329E-08
  0.124390E+01  0.621951E+01  0.115773E-06 -0.183414E-08
  0.124390E+01  0.870732E+01  0.928475E-07 -0.590973E-08
  0.124390E+01  0.111951E+02  0.121655E-06  0.582888E-08
  0.124390E+01  0.136829E+02  0.109218E-06  0.662266E-08
  0.124390E+01  0.161707E+02  0.182982E-06  0.406607E-08
  0.124390E+01  0.186585E+02  0.186683E-06  0.125423E-07
  0.124390E+01  0.211463E+02  0.864232E-07  0.614176E-08
  0.124390E+01  0.236341E+02  0.499070E-07 -0.468789E-09
  0.124390E+01  0.261220E+02  0.557047E-07 -0.771687E-09
  0.124390E+01  0.286098E+02  0.437894E-07  0.387026E-09
  0.124390E+01  0.310976E+02  0.569368E-07  0.457944E-08
  0.124390E+01  0.335854E+02  0.675997E-07 -0.199586E-08
  0.124390E+01  0.360732E+02  0.218622E-06 -0.123356E-07
  0.124390E+01  0.385610E+02  0.300130E-06 -0.174618E-07
  0.124390E+01  0.410488E+02  0.337743E-06 -0.101426E-07
  0.124390E+01  0.435366E+02  0.269208E-06 -0.164780E-07
  0.124390E+01  0.460244E+02  0.149578E-06 -0.996658E-08
  0.124390E+01  0.485122E+02  0.168095E-06 -0.695458E-09
  0.124390E+01  0.510000E+02  0.125632E-06  0.468090E-08
  0.124390E+01  0.534878E+02  0.113775E-06 -0.271927E-08
  0.124390E+01  0.559756E+02  0.268381E-06 -0.903752E-08
  0.124390E+01  0.584634E+02  0.304726E-06  0.849097E-08
  0.124390E+01  0.609512E+02  0.256105E-06  0.359360E-07
  0.124390E+01  0.634390E+02  0.504513E-06  0.736913E-07
  0.124390E+01  0.659268E+02  0.334058E-06  0.616971E-07
  0.124390E+01  0.684146E+02  0.218058E-06  0.119101E-07
  0.124390E+01  0.709024E+02  0.265065E-06 -0.205774E-07
  0.124390E+01  0.733902E+02  0.132130E-06 -0.398032E-08
  0.124390E+01  0.758780E+02  0.408955E-06  0.753840E-08
  0.124390E+01  0.783659E+02  0.482398E-06  0.207648E-07
  0.124390E+01  0.808537E+02  0.224195E-06 -0.830525E-09
  0.124390E+01  0.833415E+02  0.318120E-06  0.502551E-08
  0.124390E+01  0.858293E+02  0.151422E-06  0.111469E-07
  0.124390E+01  0.883171E+02  0.621537E-07  0.218037E-08
  0.124390E+01  0.908049E+02  0.295850E-07 -0.163595E-08
  0.124390E+01  0.932927E+02  0.649441E-07 -0.516008E-08
  0.124390E+01  0.957805E+02  0.673938E-07 -0.140752E-09
  0.124390E+01  0.982683E+02  0.768093E-07  0.970410E-08
  0.124390E+01  0.100756E+03  0.373107E-07  0.251661E-07
  0.373171E+01  0.124390E+01  0.278686E-06  0.693492E-08
  0.373171E+01  0.373171E+01  0.287483E-06  0.471040E-07
  0.373171E+01  0.621951E+01  0.198990E-06 -0.136963E-09
  0.373171E+01  0.870732E+01  0.173384E-06 -0.264325E-07
  0.373171E+01  0.111951E+02  0.109295E-06  0.733421E-08
  0.373171E+01  0.136829E+02  0.202135E-06  0.304865E-07
  0.373171E+01  0.161707E+02  0.117271E-06  0.205580E-07
  0.373171E+01  0.186585E+02  0.139271E-06  0.255998E-07
  0.373171E+01  0.211463E+02  0.141158E-06  0.357651E-07
  0.373171E+01  0.236341E+02  0.626932E-07  0.639999E-08
  0.373171E+01  0.261220E+02  0.276142E-07  0.114791E-08
  0.373171E+01  0.286098E+02  0.297590E-07  0.325037E-08
  0.373171E+01  0.310976E+02  0.369859E-07 -0.105562E-08
  0.373171E+01  0.335854E+02  0.108316E-06 -0.287481E-07
  0.373171E+01  0.360732E+02  0.347012E-06 -0.247562E-07
  0.373171E+01  0.385610E+02  0.186166E-06 -0.119073E-07
  0.373171E+01  0.410488E+02  0.246533E-06 -0.148069E-07
  0.373171E+01  0.435366E+02  0.189987E-06 -0.121045E-08
  0.373171E+01  0.460244E+02  0.104874E-06 -0.300551E-08
  0.373171E+01  0.485122E+02  0.847526E-07 -0.841063E-08
  0.373171E+01  0.510000E+02  0.981111E-07  0.832876E-09
  0.373171E+01  0.534878E+02  0.110076E-06 -0.467912E-08
  0.373171E+01  0.559756E+02  0.162385E-06 -0.122591E-07
  0.373171E+01  0.584634E+02  0.250547E-06  0.168528E-07
  0.373171E+01  0.609512E+02  0.213671E-06  0.705301E-07
  0.373171E+01  0.634390E+02  0.470424E-06  0.154622E-06
  0.373171E+01  0.659268E+02  0.338603E-06  0.119395E-06
  0.373171E+01  0.684146E+02  0.334380E-06  0.484143E-07
  0.373171E+01  0.709024E+02  0.147645E-06 -0.344390E-08
  0.373171E+01  0.733902E+02  0.192023E-06 -0.152915E-07
  0.373171E+01  0.758780E+02  0.396686E-06 -0.523946E-08
  0.373171E+01  0.783659E+02  0.517702E-06  0.410274E-07
  0.373171E+01  0.808537E+02  0.349714E-06 -0.566485E-08
  0.373171E+01  0.833415E+02  0.315312E-06 -0.146282E-08
  0.373171E+01  0.858293E+02  0.190616E-06  0.310116E-07
  0.373171E+01  0.883171E+02  0.131437E-06  0.132960E-07
  0.373171E+01  0.908049E+02  0.907941E-07 -0.931049E-08
  0.373171E+01  0.932927E+02  0.855293E-07 -0.142002E-07
  0.373171E+01  0.957805E+02  0.491959E-07  0.366631E-08
  0.373171E+01  0.982683E+02  0.488204E-07  0.104600E-07
  0.373171E+01  0.100756E+03  0.528356E-07  0.572930E-08
  0.621951E+01  0.124390E+01  0.273649E-06 -0.349872E-09
  0.621951E+01  0.373171E+01  0.109973E-06 -0.179651E-08
  0.621951E+01  0.621951E+01  0.270736E-06 -0.666560E-08
  0.621951E+01  0.870732E+01  0.903785E-07 -0.118202E-07
  0.621951E+01  0.111951E+02  0.161113E-06  0.721346E-08
  0.621951E+01  0.136829E+02  0.135820E-06  0.371122E-07
  0.621951E+01  0.161707E+02  0.155604E-06  0.390720E-07
  0.621951E+01  0.186585E+02  0.143381E-06  0.417033E-07
  0.621951E+01  0.211463E+02  0.994230E-07  0.340435E-07
  0.621951E+01  0.236341E+02  0.479530E-07  0.100131E-07
  0.621951E+01  0.261220E+02  0.200088E-07  0.294339E-08
  0.621951E+01  0.286098E+02  0.380691E-07  0.643280E-08
  0.621951E+01  0.310976E+02  0.576692E-07 -0.316534E-08
  0.621951E+01  0.335854E+02  0.757755E-07 -0.163226E-07
  0.621951E+01  0.360732E+02  0.255569E-06 -0.130802E-07
  0.621951E+01  0.385610E+02  0.195267E-06 -0.184958E-08
  0.621951E+01  0.410488E+02  0.184760E-06 -0.827580E-08
  0.621951E+01  0.435366E+02  0.139391E-06  0.162442E-08
  0.621951E+01  0.460244E+02  0.120563E-06 -0.921012E-09
  0.621951E+01  0.485122E+02  0.102279E-06 -0.146644E-07
  0.621951E+01  0.510000E+02  0.637187E-07 -0.981269E-08
  0.621951E+01  0.534878E+02  0.196648E-06 -0.783904E-08
  0.621951E+01  0.559756E+02  0.192568E-06  0.395816E-08
  0.621951E+01  0.584634E+02  0.155547E-06  0.159753E-07
  0.621951E+01  0.609512E+02  0.160446E-06  0.733585E-07
  0.621951E+01  0.634390E+02  0.335722E-06  0.144040E-06
  0.621951E+01  0.659268E+02  0.351101E-06  0.105202E-06
  0.621951E+01  0.684146E+02  0.252523E-06  0.350766E-07
  0.621951E+01  0.709024E+02  0.288714E-06  0.357100E-07
  0.621951E+01  0.733902E+02  0.217565E-06 -0.492056E-08
  0.621951E+01  0.758780E+02  0.232364E-06 -0.112394E-07
  0.621951E+01  0.783659E+02  0.324892E-06 -0.200926E-08
  0.621951E+01  0.808537E+02  0.566859E-06  0.126590E-07
  0.621951E+01  0.833415E+02  0.136843E-06  0.290125E-08
  0.621951E+01  0.858293E+02  0.292191E-06  0.301794E-07
  0.621951E+01  0.883171E+02  0.136832E-06  0.249975E-07
  0.621951E+01  0.908049E+02  0.142615E-06 -0.607468E-08
  0.621951E+01  0.932927E+02  0.976000E-07 -0.428320E-08
  0.621951E+01  0.957805E+02  0.939123E-07  0.505060E-08
  0.621951E+01  0.982683E+02  0.816140E-07  0.131240E-07
  0.621951E+01  0.100756E+03  0.658242E-07  0.929404E-08
  0.870732E+01  0.124390E+01  0.149069E-06 -0.107594E-10
  0.870732E+01  0.373171E+01  0.925455E-07 -0.120431E-07
  0.870732E+01  0.621951E+01  0.704724E-07 -0.701857E-08
  0.870732E+01  0.870732E+01  0.907811E-07  0.488330E-08
  0.870732E+01  0.111951E+02  0.566414E-07  0.280690E-08
  0.870732E+01  0.136829E+02  0.121227E-06  0.275853E-07
  0.870732E+01  0.161707E+02  0.180767E-06  0.487429E-07
  0.870732E+01  0.186585E+02  0.737331E-07  0.244649E-07
  0.870732E+01  0.211463E+02  0.100455E-06  0.394121E-07
  0.870732E+01  0.236341E+02  0.881660E-07  0.290045E-07
  0.870732E+01  0.261220E+02  0.710505E-07  0.221252E-07
  0.870732E+01  0.286098E+02  0.542219E-07  0.658130E-08
  0.870732E+01  0.310976E+02  0.596047E-07  0.643602E-08
  0.870732E+01  0.335854E+02  0.904834E-07 -0.886494E-08
  0.870732E+01  0.360732E+02  0.137222E-06 -0.192377E-07
  0.870732E+01  0.385610E+02  0.154762E-06 -0.114609E-07
  0.870732E+01  0.410488E+02  0.207574E-06  0.243743E-08
  0.870732E+01  0.435366E+02  0.930998E-07 -0.954724E-09
  0.870732E+01  0.460244E+02  0.160500E-06 -0.804824E-08
  0.870732E+01  0.485122E+02  0.908634E-07 -0.527007E-08
  0.870732E+01  0.510000E+02  0.158891E-06 -0.106721E-07
  0.870732E+01  0.534878E+02  0.121284E-06  0.112708E-08
  0.870732E+01  0.559756E+02  0.330078E-06  0.266267E-07
  0.870732E+01  0.584634E+02  0.246916E-06  0.659790E-07
  0.870732E+01  0.609512E+02  0.162362E-06  0.487729E-07
  0.870732E+01  0.634390E+02  0.246244E-06  0.605468E-07
  0.870732E+01  0.659268E+02  0.518934E-06  0.734315E-07
  0.870732E+01  0.684146E+02  0.495947E-06  0.369336E-07
  0.870732E+01  0.709024E+02  0.228929E-06  0.601589E-07
  0.870732E+01  0.733902E+02  0.284931E-06  0.289526E-07
  0.870732E+01  0.758780E+02  0.321611E-06 -0.299707E-08
  0.870732E+01  0.783659E+02  0.264211E-06  0.235134E-08
  0.870732E+01  0.808537E+02  0.317407E-06  0.165154E-07
  0.870732E+01  0.833415E+02  0.179088E-06  0.187243E-07
  0.870732E+01  0.858293E+02  0.147282E-06  0.164338E-07
  0.870732E+01  0.883171E+02  0.156988E-06  0.277821E-07
  0.870732E+01  0.908049E+02  0.904143E-07  0.329151E-08
  0.870732E+01  0.932927E+02  0.706137E-07  0.131551E-08
  0.870732E+01  0.957805E+02  0.985041E-07  0.417875E-08
  0.870732E+01  0.982683E+02  0.599206E-07  0.271716E-08
  0.870732E+01  0.100756E+03  0.885717E-07  0.206330E-08
  0.111951E+02  0.124390E+01  0.126623E-06 -0.513297E-08
  0.111951E+02  0.373171E+01  0.193343E-06 -0.179026E-07
  0.111951E+02  0.621951E+01  0.884258E-07 -0.615542E-08
  0.111951E+02  0.870732E+01  0.637517E-07  0.346814E-08
  0.111951E+02  0.111951E+02  0.903043E-07  0.309880E-08
  0.111951E+02  0.136829E+02  0.663341E-07  0.645855E-08
  0.111951E+02  0.161707E+02  0.152347E-06  0.500530E-07
  0.111951E+02  0.186585E+02  0.185837E-06  0.722179E-07
  0.111951E+02  0.211463E+02  0.109806E-06  0.288467E-07
  0.111951E+02  0.236341E+02  0.154253E-06  0.330096E-07
  0.111951E+02  0.261220E+02  0.104071E-06  0.317817E-07
  0.111951E+02  0.286098E+02  0.744095E-07  0.249470E-07
  0.111951E+02  0.310976E+02  0.992315E-07  0.207933E-07
  0.111951E+02  0.335854E+02  0.101442E-06 -0.263094E-08
  0.111951E+02  0.360732E+02  0.149944E-06 -0.253758E-07
  0.111951E+02  0.385610E+02  0.772227E-07 -0.885714E-08
  0.111951E+02  0.410488E+02  0.131234E-06  0.840337E-08
  0.111951E+02  0.435366E+02  0.147834E-06  0.684149E-08
  0.111951E+02  0.460244E+02  0.163539E-06 -0.811211E-08
  0.111951E+02  0.485122E+02  0.811577E-07  0.316913E-08
  0.111951E+02  0.510000E+02  0.149634E-06  0.254701E-07
  0.111951E+02  0.534878E+02  0.154043E-06  0.301751E-07
  0.111951E+02  0.559756E+02  0.239639E-06  0.384916E-07
  0.111951E+02  0.584634E+02  0.200884E-06  0.475586E-07
  0.111951E+02  0.609512E+02  0.316628E-06  0.822271E-07
  0.111951E+02  0.634390E+02  0.366018E-06  0.474463E-07
  0.111951E+02  0.659268E+02  0.818500E-06  0.221088E-08
  0.111951E+02  0.684146E+02  0.393109E-06  0.465672E-07
  0.111951E+02  0.709024E+02  0.272139E-06  0.679012E-07
  0.111951E+02  0.733902E+02  0.567350E-06  0.234761E-07
  0.111951E+02  0.758780E+02  0.354174E-06  0.476347E-07
  0.111951E+02  0.783659E+02  0.266507E-06  0.283931E-07
  0.111951E+02  0.808537E+02  0.223707E-06  0.155327E-07
  0.111951E+02  0.833415E+02  0.590907E-07  0.128703E-07
  0.111951E+02  0.858293E+02  0.788658E-07  0.158703E-07
  0.111951E+02  0.883171E+02  0.103683E-06  0.165760E-07
  0.111951E+02  0.908049E+02  0.123301E-06  0.964666E-08
  0.111951E+02  0.932927E+02  0.490147E-07 -0.640329E-10
  0.111951E+02  0.957805E+02  0.651414E-07  0.189856E-08
  0.111951E+02  0.982683E+02  0.769278E-07 -0.104142E-08
  0.111951E+02  0.100756E+03  0.730362E-07 -0.355494E-08
  0.136829E+02  0.124390E+01  0.179057E-06 -0.859681E-08
  0.136829E+02  0.373171E+01  0.116032E-06 -0.935438E-08
  0.136829E+02  0.621951E+01  0.715564E-07 -0.125397E-08
  0.136829E+02  0.870732E+01  0.959482E-07  0.575474E-08
  0.136829E+02  0.111951E+02  0.648931E-07  0.613826E-08
  0.136829E+02  0.136829E+02  0.607632E-07  0.495679E-08
  0.136829E+02  0.161707E+02  0.645647E-07  0.575609E-09
  0.136829E+02  0.186585E+02  0.159135E-06  0.171429E-07
  0.136829E+02  0.211463E+02  0.228679E-06  0.492384E-07
  0.136829E+02  0.236341E+02  0.381109E-06  0.125853E-06
  0.136829E+02  0.261220E+02  0.229477E-06  0.825299E-07
  0.136829E+02  0.286098E+02  0.131648E-06  0.512827E-07
  0.136829E+02  0.310976E+02  0.157601E-06  0.316594E-07
  0.136829E+02  0.335854E+02  0.371315E-06 -0.208678E-07
  0.136829E+02  0.360732E+02  0.166549E-06 -0.228009E-07
  0.136829E+02  0.385610E+02  0.118873E-06 -0.169425E-08
  0.136829E+02  0.410488E+02  0.129218E-06  0.972260E-08
  0.136829E+02  0.435366E+02  0.208804E-06  0.205780E-07
  0.136829E+02  0.460244E+02  0.145698E-06  0.142416E-07
  0.136829E+02  0.485122E+02  0.572727E-07  0.709038E-08
  0.136829E+02  0.510000E+02  0.142344E-06  0.287301E-07
  0.136829E+02  0.534878E+02  0.168554E-06  0.522319E-07
  0.136829E+02  0.559756E+02  0.273772E-06  0.526233E-07
  0.136829E+02  0.584634E+02  0.335405E-06  0.352430E-07
  0.136829E+02  0.609512E+02  0.137132E-06  0.693929E-09
  0.136829E+02  0.634390E+02  0.484788E-06 -0.468807E-07
  0.136829E+02  0.659268E+02  0.809208E-06 -0.200313E-08
  0.136829E+02  0.684146E+02  0.513120E-06  0.125997E-06
  0.136829E+02  0.709024E+02  0.706036E-06  0.200135E-06
  0.136829E+02  0.733902E+02  0.384340E-06  0.768926E-07
  0.136829E+02  0.758780E+02  0.231817E-06  0.293293E-07
  0.136829E+02  0.783659E+02  0.333484E-06  0.111441E-07
  0.136829E+02  0.808537E+02  0.179424E-06  0.161447E-07
  0.136829E+02  0.833415E+02  0.783245E-07  0.167137E-07
  0.136829E+02  0.858293E+02  0.663481E-07  0.157202E-07
  0.136829E+02  0.883171E+02  0.735507E-07  0.740448E-08
  0.136829E+02  0.908049E+02  0.123797E-06  0.650037E-08
  0.136829E+02  0.932927E+02  0.679522E-07 -0.928305E-09
  0.136829E+02  0.957805E+02  0.566230E-07 -0.129732E-07
  0.136829E+02  0.982683E+02  0.747578E-07 -0.792454E-08
  0.136829E+02  0.100756E+03  0.861925E-07 -0.787180E-09
  0.161707E+02  0.124390E+01  0.201708E-06 -0.219800E-08
  0.161707E+02  0.373171E+01  0.169705E-06  0.126682E-07
  0.161707E+02  0.621951E+01  0.421523E-07  0.575357E-08
  0.161707E+02  0.870732E+01  0.700626E-07  0.501077E-08
  0.161707E+02  0.111951E+02  0.737735E-07  0.102311E-07
  0.161707E+02  0.136829E+02  0.761856E-07 -0.386339E-09
  0.161707E+02  0.161707E+02  0.185754E-06 -0.266697E-07
  0.161707E+02  0.186585E+02  0.145085E-06 -0.177152E-07
  0.161707E+02  0.211463E+02  0.293213E-06 -0.154721E-08
  0.161707E+02  0.236341E+02  0.237083E-06  0.397101E-07
  0.161707E+02  0.261220E+02  0.407961E-06  0.156843E-06
  0.161707E+02  0.286098E+02  0.213941E-06  0.728665E-07
  0.161707E+02  0.310976E+02  0.357024E-06  0.365003E-08
  0.161707E+02  0.335854E+02  0.303242E-06  0.963207E-08
  0.161707E+02  0.360732E+02  0.194012E-06  0.207750E-07
  0.161707E+02  0.385610E+02  0.701619E-07  0.830221E-08
  0.161707E+02  0.410488E+02  0.172676E-06  0.128908E-07
  0.161707E+02  0.435366E+02  0.164979E-06  0.287862E-07
  0.161707E+02  0.460244E+02  0.202742E-06  0.408803E-07
  0.161707E+02  0.485122E+02  0.942641E-07  0.218971E-07
  0.161707E+02  0.510000E+02  0.108673E-06  0.381803E-07
  0.161707E+02  0.534878E+02  0.172968E-06  0.659468E-07
  0.161707E+02  0.559756E+02  0.312928E-06  0.535332E-07
  0.161707E+02  0.584634E+02  0.185925E-06  0.280251E-07
  0.161707E+02  0.609512E+02  0.289103E-06 -0.240222E-07
  0.161707E+02  0.634390E+02  0.225602E-06 -0.271145E-07
  0.161707E+02  0.659268E+02  0.418324E-06  0.287239E-07
  0.161707E+02  0.684146E+02  0.298098E-06  0.410841E-07
  0.161707E+02  0.709024E+02  0.308315E-06  0.516853E-07
  0.161707E+02  0.733902E+02  0.344270E-06  0.904661E-07
  0.161707E+02  0.758780E+02  0.344132E-06  0.739961E-07
  0.161707E+02  0.783659E+02  0.372860E-06  0.582193E-07
  0.161707E+02  0.808537E+02  0.172381E-06  0.214550E-07
  0.161707E+02  0.833415E+02  0.102691E-06  0.112230E-08
  0.161707E+02  0.858293E+02  0.912274E-07  0.176154E-08
  0.161707E+02  0.883171E+02  0.151125E-06  0.740756E-09
  0.161707E+02  0.908049E+02  0.119209E-06  0.641836E-10
  0.161707E+02  0.932927E+02  0.877044E-07 -0.678175E-08
  0.161707E+02  0.957805E+02  0.475742E-07 -0.552669E-08
  0.161707E+02  0.982683E+02  0.685779E-07 -0.721267E-08
  0.161707E+02  0.100756E+03  0.102261E-06 -0.929232E-08
  0.186585E+02  0.124390E+01  0.228101E-06  0.163182E-07
  0.186585E+02  0.373171E+01  0.110093E-06  0.325279E-07
  0.186585E+02  0.621951E+01  0.686898E-07  0.235956E-07
  0.186585E+02  0.870732E+01  0.287132E-07  0.402866E-08
  0.186585E+02  0.111951E+02  0.804112E-07  0.347134E-08
  0.186585E+02  0.136829E+02  0.116102E-06 -0.127111E-07
  0.186585E+02  0.161707E+02  0.207185E-06 -0.201745E-07
  0.186585E+02  0.186585E+02  0.189860E-06 -0.157549E-07
  0.186585E+02  0.211463E+02  0.247628E-06 -0.617958E-09
  0.186585E+02  0.236341E+02  0.324419E-06  0.259137E-07
  0.186585E+02  0.261220E+02  0.249929E-06  0.290824E-07
  0.186585E+02  0.286098E+02  0.571544E-06  0.439641E-07
  0.186585E+02  0.310976E+02  0.231583E-06  0.125723E-08
  0.186585E+02  0.335854E+02  0.173560E-06  0.112598E-07
  0.186585E+02  0.360732E+02  0.232119E-06  0.658349E-07
  0.186585E+02  0.385610E+02  0.192290E-06  0.403928E-07
  0.186585E+02  0.410488E+02  0.165760E-06  0.227653E-07
  0.186585E+02  0.435366E+02  0.113090E-06  0.327281E-07
  0.186585E+02  0.460244E+02  0.259402E-06  0.781595E-07
  0.186585E+02  0.485122E+02  0.151944E-06  0.590235E-07
  0.186585E+02  0.510000E+02  0.780796E-07  0.448958E-07
  0.186585E+02  0.534878E+02  0.183026E-06  0.987664E-07
  0.186585E+02  0.559756E+02  0.362834E-06  0.135248E-06
  0.186585E+02  0.584634E+02  0.259163E-06  0.482708E-07
  0.186585E+02  0.609512E+02  0.188331E-06  0.227006E-07
  0.186585E+02  0.634390E+02  0.376837E-06  0.311280E-07
  0.186585E+02  0.659268E+02  0.351978E-06  0.551271E-07
  0.186585E+02  0.684146E+02  0.454636E-06  0.130957E-06
  0.186585E+02  0.709024E+02  0.286336E-06  0.899425E-07
  0.186585E+02  0.733902E+02  0.186019E-06  0.484478E-07
  0.186585E+02  0.758780E+02  0.167105E-06  0.295993E-07
  0.186585E+02  0.783659E+02  0.370080E-06  0.672918E-07
  0.186585E+02  0.808537E+02  0.309945E-06  0.393616E-07
  0.186585E+02  0.833415E+02  0.183069E-06 -0.281566E-07
  0.186585E+02  0.858293E+02  0.137709E-06 -0.557734E-07
  0.186585E+02  0.883171E+02  0.141285E-06 -0.246256E-07
  0.186585E+02  0.908049E+02  0.202572E-06  0.566875E-08
  0.186585E+02  0.932927E+02  0.152033E-06  0.120660E-07
  0.186585E+02  0.957805E+02  0.639806E-07  0.561251E-08
  0.186585E+02  0.982683E+02  0.149981E-06 -0.927584E-08
  0.186585E+02  0.100756E+03  0.102165E-06 -0.603883E-08
  0.211463E+02  0.124390E+01  0.111984E-06  0.140680E-07
  0.211463E+02  0.373171E+01  0.888161E-07  0.323481E-07
  0.211463E+02  0.621951E+01  0.458001E-07  0.132362E-07
  0.211463E+02  0.870732E+01  0.440175E-07  0.472736E-08
  0.211463E+02  0.111951E+02  0.508414E-07 -0.565660E-08
  0.211463E+02  0.136829E+02  0.986601E-07 -0.835406E-08
  0.211463E+02  0.161707E+02  0.123808E-06 -0.939032E-08
  0.211463E+02  0.186585E+02  0.119108E-06 -0.134361E-07
  0.211463E+02  0.211463E+02  0.186267E-06 -0.614798E-08
  0.211463E+02  0.236341E+02  0.308266E-06  0.233838E-07
  0.211463E+02  0.261220E+02  0.547576E-06 -0.533839E-08
  0.211463E+02  0.286098E+02  0.240466E-06 -0.648930E-08
  0.211463E+02  0.310976E+02  0.297658E-06 -0.485649E-08
  0.211463E+02  0.335854E+02  0.102225E-06  0.108861E-07
  0.211463E+02  0.360732E+02  0.191254E-06  0.383334E-07
  0.211463E+02  0.385610E+02  0.182102E-06  0.298699E-07
  0.211463E+02  0.410488E+02  0.980589E-07  0.222218E-07
  0.211463E+02  0.435366E+02  0.999805E-07  0.308611E-07
  0.211463E+02  0.460244E+02  0.182320E-06  0.440714E-07
  0.211463E+02  0.485122E+02  0.222387E-06  0.850878E-07
  0.211463E+02  0.510000E+02  0.113916E-06  0.551586E-07
  0.211463E+02  0.534878E+02  0.136855E-06  0.504951E-07
  0.211463E+02  0.559756E+02  0.272343E-06  0.806603E-07
  0.211463E+02  0.584634E+02  0.396693E-06  0.144142E-06
  0.211463E+02  0.609512E+02  0.282375E-06  0.159001E-06
  0.211463E+02  0.634390E+02  0.513616E-06  0.148156E-06
  0.211463E+02  0.659268E+02  0.262893E-06  0.433918E-07
  0.211463E+02  0.684146E+02  0.218915E-06  0.443604E-07
  0.211463E+02  0.709024E+02  0.230379E-06  0.106506E-06
  0.211463E+02  0.733902E+02  0.176693E-06  0.114606E-06
  0.211463E+02  0.758780E+02  0.313267E-06  0.101039E-06
  0.211463E+02  0.783659E+02  0.307181E-06  0.274689E-07
  0.211463E+02  0.808537E+02  0.490051E-06  0.195898E-07
  0.211463E+02  0.833415E+02  0.240439E-06  0.954634E-08
  0.211463E+02  0.858293E+02  0.144213E-06 -0.263057E-07
  0.211463E+02  0.883171E+02  0.112300E-06 -0.254770E-07
  0.211463E+02  0.908049E+02  0.188018E-06 -0.125001E-07
  0.211463E+02  0.932927E+02  0.213936E-06  0.164820E-07
  0.211463E+02  0.957805E+02  0.179059E-06  0.330260E-07
  0.211463E+02  0.982683E+02  0.196437E-06  0.487068E-08
  0.211463E+02  0.100756E+03  0.156640E-06 -0.392949E-08
  0.236341E+02  0.124390E+01  0.855823E-07  0.889370E-08
  0.236341E+02  0.373171E+01  0.714011E-07  0.140169E-07
  0.236341E+02  0.621951E+01  0.654263E-07  0.127006E-07
  0.236341E+02  0.870732E+01  0.853297E-07  0.124071E-07
  0.236341E+02  0.111951E+02  0.730035E-07  0.173461E-08
  0.236341E+02  0.136829E+02  0.722529E-07 -0.135049E-08
  0.236341E+02  0.161707E+02  0.178608E-06 -0.159241E-07
  0.236341E+02  0.186585E+02  0.205908E-06 -0.295971E-07
  0.236341E+02  0.211463E+02  0.146795E-06 -0.232575E-07
  0.236341E+02  0.236341E+02  0.242688E-06 -0.196582E-07
  0.236341E+02  0.261220E+02  0.314975E-06 -0.242361E-07
  0.236341E+02  0.286098E+02  0.535066E-06 -0.322579E-07
  0.236341E+02  0.310976E+02  0.189460E-06  0.410971E-08
  0.236341E+02  0.335854E+02  0.791345E-07  0.123508E-07
  0.236341E+02  0.360732E+02  0.102290E-06  0.987834E-08
  0.236341E+02  0.385610E+02  0.181234E-06  0.252244E-07
  0.236341E+02  0.410488E+02  0.116146E-06  0.366875E-07
  0.236341E+02  0.435366E+02  0.124183E-06  0.518496E-07
  0.236341E+02  0.460244E+02  0.221087E-06  0.836027E-07
  0.236341E+02  0.485122E+02  0.151774E-06  0.603432E-07
  0.236341E+02  0.510000E+02  0.216210E-06  0.796048E-07
  0.236341E+02  0.534878E+02  0.196783E-06  0.426460E-07
  0.236341E+02  0.559756E+02  0.363538E-06  0.660332E-07
  0.236341E+02  0.584634E+02  0.477871E-06  0.203573E-06
  0.236341E+02  0.609512E+02  0.302538E-06  0.213761E-06
  0.236341E+02  0.634390E+02  0.524181E-06  0.237984E-06
  0.236341E+02  0.659268E+02  0.589282E-06  0.261689E-06
  0.236341E+02  0.684146E+02  0.190692E-06  0.946931E-07
  0.236341E+02  0.709024E+02  0.863130E-07  0.461604E-07
  0.236341E+02  0.733902E+02  0.142410E-06  0.710654E-07
  0.236341E+02  0.758780E+02  0.228791E-06  0.907311E-07
  0.236341E+02  0.783659E+02  0.328110E-06  0.650379E-07
  0.236341E+02  0.808537E+02  0.178775E-06  0.122602E-07
  0.236341E+02  0.833415E+02  0.276747E-06  0.297138E-07
  0.236341E+02  0.858293E+02  0.264807E-06  0.764331E-08
  0.236341E+02  0.883171E+02  0.106455E-06 -0.249531E-07
  0.236341E+02  0.908049E+02  0.181894E-06 -0.306727E-07
  0.236341E+02  0.932927E+02  0.154008E-06 -0.794344E-08
  0.236341E+02  0.957805E+02  0.201539E-06  0.303481E-07
  0.236341E+02  0.982683E+02  0.452097E-06  0.128989E-07
  0.236341E+02  0.100756E+03  0.243270E-06 -0.118206E-07
  0.261220E+02  0.124390E+01  0.840537E-07 -0.161816E-08
  0.261220E+02  0.373171E+01  0.108248E-06 -0.342360E-08
  0.261220E+02  0.621951E+01  0.351347E-07  0.292317E-08
  0.261220E+02  0.870732E+01  0.108904E-06  0.245655E-07
  0.261220E+02  0.111951E+02  0.116646E-06  0.195972E-07
  0.261220E+02  0.136829E+02  0.142183E-06 -0.988948E-09
  0.261220E+02  0.161707E+02  0.343639E-06 -0.535719E-07
  0.261220E+02  0.186585E+02  0.290578E-06 -0.521254E-07
  0.261220E+02  0.211463E+02  0.186408E-06 -0.538930E-07
  0.261220E+02  0.236341E+02  0.167143E-06 -0.552172E-07
  0.261220E+02  0.261220E+02  0.249995E-06 -0.582360E-07
  0.261220E+02  0.286098E+02  0.301098E-06 -0.365542E-07
  0.261220E+02  0.310976E+02  0.207373E-06 -0.116112E-08
  0.261220E+02  0.335854E+02  0.879249E-07  0.891168E-08
  0.261220E+02  0.360732E+02  0.150722E-06  0.222614E-07
  0.261220E+02  0.385610E+02  0.102173E-06  0.194507E-07
  0.261220E+02  0.410488E+02  0.612558E-07  0.191002E-07
  0.261220E+02  0.435366E+02  0.137087E-06  0.419001E-07
  0.261220E+02  0.460244E+02  0.194952E-06  0.994955E-07
  0.261220E+02  0.485122E+02  0.423110E-06  0.240741E-06
  0.261220E+02  0.510000E+02  0.155194E-06  0.678223E-07
  0.261220E+02  0.534878E+02  0.171686E-06  0.260415E-07
  0.261220E+02  0.559756E+02  0.411398E-06  0.605511E-07
  0.261220E+02  0.584634E+02  0.219548E-06  0.105438E-06
  0.261220E+02  0.609512E+02  0.400412E-06  0.194913E-06
  0.261220E+02  0.634390E+02  0.607493E-06  0.131582E-06
  0.261220E+02  0.659268E+02  0.294526E-06  0.870087E-07
  0.261220E+02  0.684146E+02  0.217481E-06  0.139268E-06
  0.261220E+02  0.709024E+02  0.530758E-07  0.485771E-07
  0.261220E+02  0.733902E+02  0.844572E-07  0.496783E-07
  0.261220E+02  0.758780E+02  0.105206E-06  0.513106E-07
  0.261220E+02  0.783659E+02  0.301450E-06  0.125974E-06
  0.261220E+02  0.808537E+02  0.356100E-06  0.727134E-07
  0.261220E+02  0.833415E+02  0.230324E-06  0.111727E-07
  0.261220E+02  0.858293E+02  0.251280E-06  0.125129E-07
  0.261220E+02  0.883171E+02  0.101565E-06 -0.982265E-08
  0.261220E+02  0.908049E+02  0.116415E-06 -0.220216E-07
  0.261220E+02  0.932927E+02  0.941871E-07 -0.226385E-07
  0.261220E+02  0.957805E+02  0.201669E-06 -0.575756E-07
  0.261220E+02  0.982683E+02  0.561695E-06 -0.432618E-07
  0.261220E+02  0.100756E+03  0.465871E-06  0.244971E-07
  0.286098E+02  0.124390E+01  0.889371E-07 -0.714731E-08
  0.286098E+02  0.373171E+01  0.585153E-07 -0.413575E-08
  0.286098E+02  0.621951E+01  0.849246E-07 -0.163726E-08
  0.286098E+02  0.870732E+01  0.917229E-07  0.572601E-08
  0.286098E+02  0.111951E+02  0.210205E-06  0.278211E-07
  0.286098E+02  0.136829E+02  0.338590E-06 -0.157313E-07
  0.286098E+02  0.161707E+02  0.264687E-06 -0.496253E-07
  0.286098E+02  0.186585E+02  0.290312E-06 -0.550238E-07
  0.286098E+02  0.211463E+02  0.201446E-06 -0.719225E-07
  0.286098E+02  0.236341E+02  0.226560E-06 -0.113917E-06
  0.286098E+02  0.261220E+02  0.271012E-06 -0.707805E-07
  0.286098E+02  0.286098E+02  0.312645E-06 -0.467975E-07
  0.286098E+02  0.310976E+02  0.191318E-06 -0.194145E-07
  0.286098E+02  0.335854E+02  0.919988E-07 -0.185540E-08
  0.286098E+02  0.360732E+02  0.104236E-06  0.853381E-08
  0.286098E+02  0.385610E+02  0.120813E-06  0.261848E-07
  0.286098E+02  0.410488E+02  0.546087E-07  0.125694E-07
  0.286098E+02  0.435366E+02  0.112029E-06  0.268418E-07
  0.286098E+02  0.460244E+02  0.210987E-06  0.107976E-06
  0.286098E+02  0.485122E+02  0.494413E-06  0.290545E-06
  0.286098E+02  0.510000E+02  0.502594E-06  0.213841E-06
  0.286098E+02  0.534878E+02  0.560363E-06  0.104937E-06
  0.286098E+02  0.559756E+02  0.136296E-06  0.263125E-07
  0.286098E+02  0.584634E+02  0.127412E-06  0.590917E-07
  0.286098E+02  0.609512E+02  0.525067E-06  0.268120E-06
  0.286098E+02  0.634390E+02  0.898132E-06  0.317845E-06
  0.286098E+02  0.659268E+02  0.163685E-06  0.816738E-07
  0.286098E+02  0.684146E+02  0.128886E-06  0.512352E-07
  0.286098E+02  0.709024E+02  0.909257E-07  0.525731E-07
  0.286098E+02  0.733902E+02  0.922784E-07  0.526973E-07
  0.286098E+02  0.758780E+02  0.118555E-06  0.794244E-07
  0.286098E+02  0.783659E+02  0.215052E-06  0.107735E-06
  0.286098E+02  0.808537E+02  0.419337E-06  0.109566E-06
  0.286098E+02  0.833415E+02  0.213823E-06  0.332100E-07
  0.286098E+02  0.858293E+02  0.148945E-06 -0.564842E-08
  0.286098E+02  0.883171E+02  0.122686E-06 -0.113303E-07
  0.286098E+02  0.908049E+02  0.130050E-06 -0.185120E-07
  0.286098E+02  0.932927E+02  0.122622E-06 -0.516832E-07
  0.286098E+02  0.957805E+02  0.249101E-06 -0.911301E-07
  0.286098E+02  0.982683E+02  0.239024E-06 -0.637458E-07
  0.286098E+02  0.100756E+03  0.618573E-06 -0.645159E-07
  0.310976E+02  0.124390E+01  0.938048E-07 -0.166444E-08
  0.310976E+02  0.373171E+01  0.859284E-07 -0.166637E-07
  0.310976E+02  0.621951E+01  0.837082E-07 -0.290497E-07
  0.310976E+02  0.870732E+01  0.765770E-07 -0.209330E-07
  0.310976E+02  0.111951E+02  0.223693E-06 -0.141778E-07
  0.310976E+02  0.136829E+02  0.489808E-06 -0.602144E-08
  0.310976E+02  0.161707E+02  0.233811E-06 -0.238827E-07
  0.310976E+02  0.186585E+02  0.313034E-06 -0.482901E-07
  0.310976E+02  0.211463E+02  0.363932E-06 -0.965008E-07
  0.310976E+02  0.236341E+02  0.199750E-06 -0.867867E-07
  0.310976E+02  0.261220E+02  0.351326E-06 -0.707602E-07
  0.310976E+02  0.286098E+02  0.279348E-06 -0.376097E-07
  0.310976E+02  0.310976E+02  0.220436E-06 -0.223801E-07
  0.310976E+02  0.335854E+02  0.151424E-06 -0.153333E-07
  0.310976E+02  0.360732E+02  0.185184E-06 -0.151116E-07
  0.310976E+02  0.385610E+02  0.941383E-07  0.109868E-07
  0.310976E+02  0.410488E+02  0.130720E-06  0.160433E-07
  0.310976E+02  0.435366E+02  0.122771E-06  0.366413E-07
  0.310976E+02  0.460244E+02  0.217220E-06  0.111775E-06
  0.310976E+02  0.485122E+02  0.283744E-06  0.108986E-06
  0.310976E+02  0.510000E+02  0.979425E-06  0.392959E-06
  0.310976E+02  0.534878E+02  0.939841E-06  0.402286E-06
  0.310976E+02  0.559756E+02  0.287536E-06  0.130032E-06
  0.310976E+02  0.584634E+02  0.139019E-06  0.462069E-07
  0.310976E+02  0.609512E+02  0.320820E-06  0.760272E-07
  0.310976E+02  0.634390E+02  0.576942E-06  0.107841E-06
  0.310976E+02  0.659268E+02  0.309035E-06  0.162410E-06
  0.310976E+02  0.684146E+02  0.200689E-06  0.136117E-06
  0.310976E+02  0.709024E+02  0.895369E-07  0.616509E-07
  0.310976E+02  0.733902E+02  0.139915E-06  0.581091E-07
  0.310976E+02  0.758780E+02  0.106749E-06  0.560810E-07
  0.310976E+02  0.783659E+02  0.309074E-06  0.113192E-06