 title="xz fracture velocity field tdays=  14550.000"
variables="x","z","vx","vz"
zone i=          0
