title="breakthrough data set at     5 wells"
variables="time(days)","cavg","cpk","upk","zswi"
zone i=     1295
   0.100000E+02   0.908356E-12   0.135687E-11   0.477419E+00   0.485377E+01
   0.200000E+02   0.204447E-11   0.283838E-11   0.383370E+00   0.483201E+01
   0.300000E+02   0.381909E-11   0.493443E-11   0.382435E+00   0.483201E+01
   0.400000E+02   0.657669E-11   0.792497E-11   0.382041E+00   0.483201E+01
   0.500000E+02   0.109931E-10   0.135146E-10   0.381727E+00   0.483201E+01
   0.600000E+02   0.183471E-10   0.227779E-10   0.381471E+00   0.483201E+01
   0.700000E+02   0.308943E-10   0.382311E-10   0.381285E+00   0.483201E+01
   0.800000E+02   0.523792E-10   0.639993E-10   0.381081E+00   0.483201E+01
   0.900000E+02   0.886061E-10   0.106391E-09   0.380961E+00   0.483201E+01
   0.100000E+03   0.148162E-09   0.174688E-09   0.380861E+00   0.483201E+01
   0.110000E+03   0.243193E-09   0.285552E-09   0.380776E+00   0.483201E+01
   0.120000E+03   0.390250E-09   0.466698E-09   0.380705E+00   0.483201E+01
   0.130000E+03   0.611137E-09   0.741037E-09   0.380644E+00   0.483201E+01
   0.140000E+03   0.933761E-09   0.114334E-08   0.380592E+00   0.483201E+01
   0.150000E+03   0.139291E-08   0.171636E-08   0.380548E+00   0.483201E+01
   0.160000E+03   0.203095E-08   0.251145E-08   0.380510E+00   0.483201E+01
   0.170000E+03   0.289849E-08   0.358927E-08   0.380517E+00   0.483201E+01
   0.180000E+03   0.405448E-08   0.501902E-08   0.380477E+00   0.483201E+01
   0.190000E+03   0.556636E-08   0.687864E-08   0.380442E+00   0.483201E+01
   0.200000E+03   0.751021E-08   0.925475E-08   0.380413E+00   0.483201E+01
   0.210000E+03   0.997070E-08   0.122421E-07   0.380386E+00   0.483201E+01
   0.220000E+03   0.130396E-07   0.159408E-07   0.380342E+00   0.483201E+01
   0.230000E+03   0.168179E-07   0.204606E-07   0.380325E+00   0.483201E+01
   0.240000E+03   0.214158E-07   0.259206E-07   0.380327E+00   0.483201E+01
   0.250000E+03   0.269470E-07   0.324388E-07   0.380310E+00   0.483201E+01
   0.260000E+03   0.335305E-07   0.401372E-07   0.380296E+00   0.483201E+01
   0.270000E+03   0.412891E-07   0.491396E-07   0.380283E+00   0.483201E+01
   0.280000E+03   0.503488E-07   0.595705E-07   0.380271E+00   0.483201E+01
   0.290000E+03   0.608373E-07   0.715537E-07   0.380260E+00   0.483201E+01
   0.300000E+03   0.728828E-07   0.852114E-07   0.380249E+00   0.483201E+01
   0.310000E+03   0.866133E-07   0.100663E-06   0.380239E+00   0.483201E+01
   0.320000E+03   0.102155E-06   0.118022E-06   0.380230E+00   0.483201E+01
   0.330000E+03   0.119630E-06   0.137399E-06   0.380221E+00   0.483201E+01
   0.340000E+03   0.139158E-06   0.158897E-06   0.380213E+00   0.483201E+01
   0.350000E+03   0.160853E-06   0.182612E-06   0.380206E+00   0.483201E+01
   0.360000E+03   0.184823E-06   0.208632E-06   0.380200E+00   0.483201E+01
   0.370000E+03   0.211166E-06   0.237034E-06   0.380195E+00   0.483201E+01
   0.380000E+03   0.239978E-06   0.267890E-06   0.380192E+00   0.483201E+01
   0.390000E+03   0.271342E-06   0.301260E-06   0.380189E+00   0.483201E+01
   0.400000E+03   0.305336E-06   0.337195E-06   0.380187E+00   0.483201E+01
   0.410000E+03   0.342026E-06   0.375739E-06   0.380185E+00   0.483201E+01
   0.420000E+03   0.381473E-06   0.416925E-06   0.380183E+00   0.483201E+01
   0.430000E+03   0.423726E-06   0.462673E-06   0.380182E+00   0.483201E+01
   0.440000E+03   0.468826E-06   0.511655E-06   0.380181E+00   0.483201E+01
   0.450000E+03   0.516804E-06   0.563705E-06   0.380180E+00   0.483201E+01
   0.460000E+03   0.567682E-06   0.618837E-06   0.380179E+00   0.483201E+01
   0.470000E+03   0.621475E-06   0.677056E-06   0.380178E+00   0.483201E+01
   0.480000E+03   0.678188E-06   0.738358E-06   0.380178E+00   0.483201E+01
   0.490000E+03   0.737815E-06   0.802727E-06   0.380178E+00   0.483201E+01
   0.500000E+03   0.800347E-06   0.870140E-06   0.380177E+00   0.483201E+01
   0.510000E+03   0.865763E-06   0.940567E-06   0.380177E+00   0.483201E+01
   0.520000E+03   0.934037E-06   0.101397E-05   0.380178E+00   0.483201E+01
   0.530000E+03   0.100513E-05   0.109029E-05   0.380178E+00   0.483201E+01
   0.540000E+03   0.107902E-05   0.116949E-05   0.380179E+00   0.483201E+01
   0.550000E+03   0.115563E-05   0.125150E-05   0.380179E+00   0.483201E+01
   0.560000E+03   0.123494E-05   0.133626E-05   0.380181E+00   0.483201E+01
   0.570000E+03   0.131687E-05   0.142369E-05   0.380182E+00   0.483201E+01
   0.580000E+03   0.140136E-05   0.151372E-05   0.380184E+00   0.483201E+01
   0.590000E+03   0.148836E-05   0.160627E-05   0.380185E+00   0.483201E+01
   0.600000E+03   0.157778E-05   0.170126E-05   0.380187E+00   0.483201E+01
   0.610000E+03   0.166956E-05   0.179860E-05   0.380189E+00   0.483201E+01
   0.620000E+03   0.176362E-05   0.189820E-05   0.380191E+00   0.483201E+01
   0.630000E+03   0.185988E-05   0.199997E-05   0.380193E+00   0.483201E+01
   0.640000E+03   0.195826E-05   0.210383E-05   0.380195E+00   0.483201E+01
   0.650000E+03   0.205868E-05   0.220967E-05   0.380197E+00   0.483201E+01
   0.660000E+03   0.216105E-05   0.231741E-05   0.380199E+00   0.483201E+01
   0.670000E+03   0.226529E-05   0.242695E-05   0.380201E+00   0.483201E+01
   0.680000E+03   0.237130E-05   0.253819E-05   0.380203E+00   0.483201E+01
   0.690000E+03   0.247901E-05   0.265104E-05   0.380205E+00   0.483201E+01
   0.700000E+03   0.258832E-05   0.276541E-05   0.380207E+00   0.483201E+01
   0.710000E+03   0.269913E-05   0.288119E-05   0.380210E+00   0.483201E+01
   0.720000E+03   0.281137E-05   0.299831E-05   0.380212E+00   0.483201E+01
   0.730000E+03   0.292494E-05   0.311985E-05   0.380214E+00   0.483201E+01
   0.740000E+03   0.303976E-05   0.324490E-05   0.380217E+00   0.483201E+01
   0.750000E+03   0.315572E-05   0.337124E-05   0.380219E+00   0.483201E+01
   0.760000E+03   0.327274E-05   0.349876E-05   0.380222E+00   0.483201E+01
   0.770000E+03   0.339074E-05   0.362737E-05   0.380224E+00   0.483201E+01
   0.780000E+03   0.350963E-05   0.375695E-05   0.380227E+00   0.483201E+01
   0.790000E+03   0.362931E-05   0.388743E-05   0.380229E+00   0.483201E+01
   0.800000E+03   0.374970E-05   0.401869E-05   0.380232E+00   0.483201E+01
   0.810000E+03   0.387072E-05   0.415064E-05   0.380234E+00   0.483201E+01
   0.820000E+03   0.399227E-05   0.428318E-05   0.380237E+00   0.483201E+01
   0.830000E+03   0.411428E-05   0.441623E-05   0.380239E+00   0.483201E+01
   0.840000E+03   0.423666E-05   0.454969E-05   0.380242E+00   0.483201E+01
   0.850000E+03   0.435934E-05   0.468346E-05   0.380245E+00   0.483201E+01
   0.860000E+03   0.448222E-05   0.481747E-05   0.380247E+00   0.483201E+01
   0.870000E+03   0.460524E-05   0.495161E-05   0.380250E+00   0.483201E+01
   0.880000E+03   0.472831E-05   0.508581E-05   0.380252E+00   0.483201E+01
   0.890000E+03   0.485135E-05   0.521997E-05   0.380255E+00   0.483201E+01
   0.900000E+03   0.497430E-05   0.535402E-05   0.380257E+00   0.483201E+01
   0.910000E+03   0.509708E-05   0.548787E-05   0.380259E+00   0.483201E+01
   0.920000E+03   0.521962E-05   0.562145E-05   0.380262E+00   0.483201E+01
   0.930000E+03   0.534183E-05   0.575466E-05   0.380264E+00   0.483201E+01
   0.940000E+03   0.546366E-05   0.588743E-05   0.380267E+00   0.483201E+01
   0.950000E+03   0.558503E-05   0.601967E-05   0.380269E+00   0.483201E+01
   0.960000E+03   0.570587E-05   0.615132E-05   0.380271E+00   0.483201E+01
   0.970000E+03   0.582612E-05   0.628230E-05   0.380274E+00   0.483201E+01
   0.980000E+03   0.594569E-05   0.641252E-05   0.380276E+00   0.483201E+01
   0.990000E+03   0.606454E-05   0.654191E-05   0.380279E+00   0.483201E+01
   0.100000E+04   0.618259E-05   0.667040E-05   0.380281E+00   0.483201E+01
   0.101000E+04   0.629977E-05   0.679792E-05   0.380283E+00   0.483201E+01
   0.102000E+04   0.641603E-05   0.692438E-05   0.380286E+00   0.483201E+01
   0.103000E+04   0.653131E-05   0.704973E-05   0.380288E+00   0.483201E+01
   0.104000E+04   0.664554E-05   0.717389E-05   0.380291E+00   0.483201E+01
   0.105000E+04   0.675866E-05   0.729680E-05   0.380293E+00   0.483201E+01
   0.106000E+04   0.687063E-05   0.741839E-05   0.380295E+00   0.483201E+01
   0.107000E+04   0.698139E-05   0.753860E-05   0.380298E+00   0.483201E+01
   0.108000E+04   0.709088E-05   0.765737E-05   0.380300E+00   0.483201E+01
   0.109000E+04   0.719906E-05   0.777464E-05   0.380302E+00   0.483201E+01
   0.110000E+04   0.730588E-05   0.789036E-05   0.380304E+00   0.483201E+01
   0.111000E+04   0.741130E-05   0.800447E-05   0.380307E+00   0.483201E+01
   0.112000E+04   0.751528E-05   0.811693E-05   0.380309E+00   0.483201E+01
   0.113000E+04   0.761777E-05   0.822768E-05   0.380311E+00   0.483201E+01
   0.114000E+04   0.771876E-05   0.833670E-05   0.380313E+00   0.483201E+01
   0.115000E+04   0.781819E-05   0.844392E-05   0.380315E+00   0.483201E+01
   0.116000E+04   0.791606E-05   0.854932E-05   0.380317E+00   0.483201E+01
   0.117000E+04   0.801232E-05   0.865287E-05   0.380319E+00   0.483201E+01
   0.118000E+04   0.810696E-05   0.875452E-05   0.380321E+00   0.483201E+01
   0.119000E+04   0.819995E-05   0.885426E-05   0.380323E+00   0.483201E+01
   0.120000E+04   0.829129E-05   0.895205E-05   0.380325E+00   0.483201E+01
   0.121000E+04   0.838095E-05   0.904788E-05   0.380327E+00   0.483201E+01
   0.122000E+04   0.846893E-05   0.914172E-05   0.380328E+00   0.483201E+01
   0.123000E+04   0.855522E-05   0.923356E-05   0.380330E+00   0.483201E+01
   0.124000E+04   0.863982E-05   0.932338E-05   0.380332E+00   0.483201E+01
   0.125000E+04   0.872272E-05   0.941117E-05   0.380333E+00   0.483201E+01
   0.126000E+04   0.880393E-05   0.949693E-05   0.380335E+00   0.483201E+01
   0.127000E+04   0.888345E-05   0.958065E-05   0.380337E+00   0.483201E+01
   0.128000E+04   0.896129E-05   0.966232E-05   0.380338E+00   0.483201E+01
   0.129000E+04   0.903746E-05   0.974195E-05   0.380340E+00   0.483201E+01
   0.130000E+04   0.911197E-05   0.981954E-05   0.380341E+00   0.483201E+01
   0.131000E+04   0.918483E-05   0.989510E-05   0.380342E+00   0.483201E+01
   0.132000E+04   0.925607E-05   0.996864E-05   0.380344E+00   0.483201E+01
   0.133000E+04   0.932569E-05   0.100402E-04   0.380345E+00   0.483201E+01
   0.134000E+04   0.939373E-05   0.101097E-04   0.380346E+00   0.483201E+01
   0.135000E+04   0.946021E-05   0.101772E-04   0.380347E+00   0.483201E+01
   0.136000E+04   0.952515E-05   0.102428E-04   0.380349E+00   0.483201E+01
   0.137000E+04   0.958858E-05   0.103065E-04   0.380350E+00   0.483201E+01
   0.138000E+04   0.965052E-05   0.103682E-04   0.380351E+00   0.483201E+01
   0.139000E+04   0.971101E-05   0.104280E-04   0.380352E+00   0.483201E+01
   0.140000E+04   0.977008E-05   0.104860E-04   0.380353E+00   0.483201E+01
   0.141000E+04   0.982777E-05   0.105422E-04   0.380354E+00   0.483201E+01
   0.142000E+04   0.988410E-05   0.105966E-04   0.380354E+00   0.483201E+01
   0.143000E+04   0.993912E-05   0.106492E-04   0.380355E+00   0.483201E+01
   0.144000E+04   0.999285E-05   0.107001E-04   0.380356E+00   0.483201E+01
   0.145000E+04   0.100453E-04   0.107493E-04   0.380357E+00   0.483201E+01
   0.146000E+04   0.100966E-04   0.107968E-04   0.380357E+00   0.483201E+01
   0.147000E+04   0.101468E-04   0.108428E-04   0.380358E+00   0.483201E+01
   0.148000E+04   0.101957E-04   0.108873E-04   0.380358E+00   0.483201E+01
   0.149000E+04   0.102437E-04   0.109302E-04   0.380359E+00   0.483201E+01
   0.150000E+04   0.102905E-04   0.109716E-04   0.380359E+00   0.483201E+01
   0.151000E+04   0.103364E-04   0.110117E-04   0.380360E+00   0.483201E+01
   0.152000E+04   0.103812E-04   0.110504E-04   0.380360E+00   0.483201E+01
   0.153000E+04   0.104252E-04   0.110878E-04   0.380361E+00   0.483201E+01
   0.154000E+04   0.104683E-04   0.111239E-04   0.380361E+00   0.483201E+01
   0.155000E+04   0.105105E-04   0.111588E-04   0.380361E+00   0.483201E+01
   0.156000E+04   0.105519E-04   0.112036E-04   0.380361E+00   0.483201E+01
   0.157000E+04   0.105925E-04   0.112475E-04   0.380361E+00   0.483201E+01
   0.158000E+04   0.106324E-04   0.112903E-04   0.380362E+00   0.483201E+01
   0.159000E+04   0.106716E-04   0.113321E-04   0.380362E+00   0.483201E+01
   0.160000E+04   0.107102E-04   0.113728E-04   0.380362E+00   0.483201E+01
   0.161000E+04   0.107481E-04   0.114125E-04   0.380362E+00   0.483201E+01
   0.162000E+04   0.107854E-04   0.114513E-04   0.380362E+00   0.483201E+01
   0.163000E+04   0.108222E-04   0.114891E-04   0.380362E+00   0.483201E+01
   0.164000E+04   0.108585E-04   0.115260E-04   0.380362E+00   0.483201E+01
   0.165000E+04   0.108943E-04   0.115621E-04   0.380362E+00   0.483201E+01
   0.166000E+04   0.109297E-04   0.115974E-04   0.380361E+00   0.483201E+01
   0.167000E+04   0.109647E-04   0.116318E-04   0.380361E+00   0.483201E+01
   0.168000E+04   0.109993E-04   0.116655E-04   0.380361E+00   0.483201E+01
   0.169000E+04   0.110335E-04   0.116985E-04   0.380361E+00   0.483201E+01
   0.170000E+04   0.110675E-04   0.117307E-04   0.380361E+00   0.483201E+01
   0.171000E+04   0.111012E-04   0.117623E-04   0.380361E+00   0.483201E+01
   0.172000E+04   0.111346E-04   0.117933E-04   0.380361E+00   0.483201E+01
   0.173000E+04   0.111679E-04   0.118237E-04   0.380360E+00   0.483201E+01
   0.174000E+04   0.112010E-04   0.118535E-04   0.380360E+00   0.483201E+01
   0.175000E+04   0.112340E-04   0.118827E-04   0.380360E+00   0.483201E+01
   0.176000E+04   0.112669E-04   0.119115E-04   0.380360E+00   0.483201E+01
   0.177000E+04   0.112997E-04   0.119398E-04   0.380360E+00   0.483201E+01
   0.178000E+04   0.113324E-04   0.119677E-04   0.380359E+00   0.483201E+01
   0.179000E+04   0.113652E-04   0.119952E-04   0.380359E+00   0.483201E+01
   0.180000E+04   0.113980E-04   0.120223E-04   0.380359E+00   0.483201E+01
   0.181000E+04   0.114309E-04   0.120491E-04   0.380358E+00   0.483201E+01
   0.182000E+04   0.114638E-04   0.120756E-04   0.380358E+00   0.483201E+01
   0.183000E+04   0.114969E-04   0.121018E-04   0.380358E+00   0.483201E+01
   0.184000E+04   0.115301E-04   0.121278E-04   0.380358E+00   0.483201E+01
   0.185000E+04   0.115635E-04   0.121535E-04   0.380357E+00   0.483201E+01
   0.186000E+04   0.115971E-04   0.121791E-04   0.380357E+00   0.483201E+01
   0.187000E+04   0.116310E-04   0.122046E-04   0.380356E+00   0.483201E+01
   0.188000E+04   0.116651E-04   0.122299E-04   0.380356E+00   0.483201E+01
   0.189000E+04   0.116995E-04   0.122551E-04   0.380356E+00   0.483201E+01
   0.190000E+04   0.117342E-04   0.122802E-04   0.380355E+00   0.483201E+01
   0.191000E+04   0.117693E-04   0.123054E-04   0.380355E+00   0.483201E+01
   0.192000E+04   0.118047E-04   0.123305E-04   0.380354E+00   0.483201E+01
   0.193000E+04   0.118405E-04   0.123556E-04   0.380354E+00   0.483201E+01
   0.194000E+04   0.118768E-04   0.123807E-04   0.380353E+00   0.483201E+01
   0.195000E+04   0.119135E-04   0.124070E-04   0.380353E+00   0.483201E+01
   0.196000E+04   0.119506E-04   0.124432E-04   0.380352E+00   0.483201E+01
   0.197000E+04   0.119883E-04   0.124791E-04   0.380351E+00   0.483201E+01
   0.198000E+04   0.120265E-04   0.125148E-04   0.380351E+00   0.483201E+01
   0.199000E+04   0.120652E-04   0.125502E-04   0.380350E+00   0.483201E+01
   0.200000E+04   0.121044E-04   0.125854E-04   0.380350E+00   0.483201E+01
   0.201000E+04   0.121443E-04   0.126204E-04   0.380349E+00   0.483201E+01
   0.202000E+04   0.121847E-04   0.126552E-04   0.380348E+00   0.483201E+01
   0.203000E+04   0.122258E-04   0.126898E-04   0.380348E+00   0.483201E+01
   0.204000E+04   0.122676E-04   0.127242E-04   0.380347E+00   0.483201E+01
   0.205000E+04   0.123100E-04   0.127585E-04   0.380346E+00   0.483201E+01
   0.206000E+04   0.123531E-04   0.127926E-04   0.380346E+00   0.483201E+01
   0.207000E+04   0.123969E-04   0.128265E-04   0.380345E+00   0.483201E+01
   0.208000E+04   0.124415E-04   0.128603E-04   0.380344E+00   0.483201E+01
   0.209000E+04   0.124868E-04   0.128940E-04   0.380343E+00   0.483201E+01
   0.210000E+04   0.125329E-04   0.129276E-04   0.380343E+00   0.483201E+01
   0.211000E+04   0.125798E-04   0.129611E-04   0.380342E+00   0.483201E+01
   0.212000E+04   0.126276E-04   0.129944E-04   0.380341E+00   0.483201E+01
   0.213000E+04   0.126762E-04   0.130277E-04   0.380340E+00   0.483201E+01
   0.214000E+04   0.127256E-04   0.130609E-04   0.380340E+00   0.483201E+01
   0.215000E+04   0.127759E-04   0.130940E-04   0.380339E+00   0.483201E+01
   0.216000E+04   0.128272E-04   0.131271E-04   0.380338E+00   0.483201E+01
   0.217000E+04   0.128793E-04   0.131601E-04   0.380337E+00   0.483201E+01
   0.218000E+04   0.129324E-04   0.131930E-04   0.380336E+00   0.483201E+01
   0.219000E+04   0.129864E-04   0.132259E-04   0.380336E+00   0.483201E+01
   0.220000E+04   0.130414E-04   0.132588E-04   0.380335E+00   0.483201E+01
   0.221000E+04   0.130973E-04   0.133583E-04   0.380334E+00   0.483201E+01
   0.222000E+04   0.131542E-04   0.134950E-04   0.380333E+00   0.483201E+01
   0.223000E+04   0.132122E-04   0.136349E-04   0.380332E+00   0.483201E+01
   0.224000E+04   0.132711E-04   0.137779E-04   0.380332E+00   0.483201E+01
   0.225000E+04   0.133310E-04   0.139241E-04   0.380331E+00   0.483201E+01
   0.226000E+04   0.133919E-04   0.140733E-04   0.380330E+00   0.483201E+01
   0.227000E+04   0.134538E-04   0.142256E-04   0.380329E+00   0.483201E+01
   0.228000E+04   0.135167E-04   0.143808E-04   0.380328E+00   0.483201E+01
   0.229000E+04   0.135806E-04   0.145390E-04   0.380327E+00   0.483201E+01
   0.230000E+04   0.136454E-04   0.147000E-04   0.380327E+00   0.483201E+01
   0.231000E+04   0.137112E-04   0.148638E-04   0.380326E+00   0.483201E+01
   0.232000E+04   0.137780E-04   0.150302E-04   0.380325E+00   0.483201E+01
   0.233000E+04   0.138456E-04   0.151991E-04   0.380324E+00   0.483201E+01
   0.234000E+04   0.139142E-04   0.153705E-04   0.380323E+00   0.483201E+01
   0.235000E+04   0.139836E-04   0.155441E-04   0.380322E+00   0.483201E+01
   0.236000E+04   0.140539E-04   0.157198E-04   0.380321E+00   0.483201E+01
   0.237000E+04   0.141250E-04   0.158975E-04   0.380321E+00   0.483201E+01
   0.238000E+04   0.141968E-04   0.160770E-04   0.380320E+00   0.483201E+01
   0.239000E+04   0.142694E-04   0.162581E-04   0.380319E+00   0.483201E+01
   0.240000E+04   0.143426E-04   0.164407E-04   0.380318E+00   0.483201E+01
   0.241000E+04   0.144164E-04   0.166245E-04   0.380317E+00   0.483201E+01
   0.242000E+04   0.144909E-04   0.168093E-04   0.380316E+00   0.483201E+01
   0.243000E+04   0.145659E-04   0.169950E-04   0.380315E+00   0.483201E+01
   0.244000E+04   0.146414E-04   0.171814E-04   0.380315E+00   0.483201E+01
   0.245000E+04   0.147173E-04   0.173682E-04   0.380314E+00   0.483201E+01
   0.246000E+04   0.147935E-04   0.175553E-04   0.380313E+00   0.483201E+01
   0.247000E+04   0.148701E-04   0.177425E-04   0.380312E+00   0.483201E+01
   0.248000E+04   0.149470E-04   0.179295E-04   0.380311E+00   0.483201E+01
   0.249000E+04   0.150241E-04   0.181162E-04   0.380310E+00   0.483201E+01
   0.250000E+04   0.151013E-04   0.183024E-04   0.380310E+00   0.483201E+01
   0.251000E+04   0.151786E-04   0.184879E-04   0.380309E+00   0.483201E+01
   0.252000E+04   0.152560E-04   0.186725E-04   0.380308E+00   0.483201E+01
   0.253000E+04   0.153334E-04   0.188561E-04   0.380307E+00   0.483201E+01
   0.254000E+04   0.154106E-04   0.190386E-04   0.380306E+00   0.483201E+01
   0.255000E+04   0.154878E-04   0.192197E-04   0.380305E+00   0.483201E+01
   0.256000E+04   0.155649E-04   0.193993E-04   0.380305E+00   0.483201E+01
   0.257000E+04   0.156417E-04   0.195774E-04   0.380304E+00   0.483201E+01
   0.258000E+04   0.157183E-04   0.197538E-04   0.380303E+00   0.483201E+01
   0.259000E+04   0.157945E-04   0.199284E-04   0.380302E+00   0.483201E+01
   0.260000E+04   0.158705E-04   0.201011E-04   0.380301E+00   0.483201E+01
   0.261000E+04   0.159461E-04   0.202718E-04   0.380300E+00   0.483201E+01
   0.262000E+04   0.160213E-04   0.204406E-04   0.380300E+00   0.483201E+01
   0.263000E+04   0.160960E-04   0.206073E-04   0.380299E+00   0.483201E+01
   0.264000E+04   0.161703E-04   0.207718E-04   0.380298E+00   0.483201E+01
   0.265000E+04   0.162441E-04   0.209343E-04   0.380297E+00   0.483201E+01
   0.266000E+04   0.163175E-04   0.210946E-04   0.380296E+00   0.483201E+01
   0.267000E+04   0.163903E-04   0.212527E-04   0.380296E+00   0.483201E+01
   0.268000E+04   0.164626E-04   0.214087E-04   0.380295E+00   0.483201E+01
   0.269000E+04   0.165343E-04   0.215625E-04   0.380294E+00   0.483201E+01
   0.270000E+04   0.166055E-04   0.217143E-04   0.380293E+00   0.483201E+01
   0.271000E+04   0.166761E-04   0.218640E-04   0.380293E+00   0.483201E+01
   0.272000E+04   0.167461E-04   0.220116E-04   0.380292E+00   0.483201E+01
   0.273000E+04   0.168156E-04   0.221573E-04   0.380291E+00   0.483201E+01
   0.274000E+04   0.168845E-04   0.223010E-04   0.380290E+00   0.483201E+01
   0.275000E+04   0.169528E-04   0.224428E-04   0.380289E+00   0.483201E+01
   0.276000E+04   0.170206E-04   0.225828E-04   0.380289E+00   0.483201E+01
   0.277000E+04   0.170878E-04   0.227210E-04   0.380288E+00   0.483201E+01
   0.278000E+04   0.171545E-04   0.228576E-04   0.380287E+00   0.483201E+01
   0.279000E+04   0.172206E-04   0.229925E-04   0.380286E+00   0.483201E+01
   0.280000E+04   0.172862E-04   0.231258E-04   0.380286E+00   0.483201E+01
   0.281000E+04   0.173512E-04   0.232576E-04   0.380285E+00   0.483201E+01
   0.282000E+04   0.174157E-04   0.233879E-04   0.380284E+00   0.483201E+01
   0.283000E+04   0.174797E-04   0.235168E-04   0.380283E+00   0.483201E+01
   0.284000E+04   0.175432E-04   0.236444E-04   0.380283E+00   0.483201E+01
   0.285000E+04   0.176062E-04   0.237707E-04   0.380282E+00   0.483201E+01
   0.286000E+04   0.176688E-04   0.238958E-04   0.380281E+00   0.483201E+01
   0.287000E+04   0.177308E-04   0.240197E-04   0.380280E+00   0.483201E+01
   0.288000E+04   0.177924E-04   0.241424E-04   0.380280E+00   0.483201E+01
   0.289000E+04   0.178535E-04   0.242639E-04   0.380279E+00   0.483201E+01
   0.290000E+04   0.179141E-04   0.243844E-04   0.380278E+00   0.483201E+01
   0.291000E+04   0.179743E-04   0.245037E-04   0.380277E+00   0.483201E+01
   0.292000E+04   0.180340E-04   0.246220E-04   0.380277E+00   0.483201E+01
   0.293000E+04   0.180933E-04   0.247393E-04   0.380276E+00   0.483201E+01
   0.294000E+04   0.181521E-04   0.248555E-04   0.380275E+00   0.483201E+01
   0.295000E+04   0.182105E-04   0.249707E-04   0.380274E+00   0.483201E+01
   0.296000E+04   0.182684E-04   0.250848E-04   0.380274E+00   0.483201E+01
   0.297000E+04   0.183259E-04   0.251978E-04   0.380273E+00   0.483201E+01
   0.298000E+04   0.183829E-04   0.253099E-04   0.380272E+00   0.483201E+01
   0.299000E+04   0.184395E-04   0.254208E-04   0.380271E+00   0.483201E+01
   0.300000E+04   0.184956E-04   0.255306E-04   0.380271E+00   0.483201E+01
   0.301000E+04   0.185513E-04   0.256394E-04   0.380270E+00   0.483201E+01
   0.302000E+04   0.186065E-04   0.257470E-04   0.380269E+00   0.483201E+01
   0.303000E+04   0.186613E-04   0.258534E-04   0.380268E+00   0.483201E+01
   0.304000E+04   0.187155E-04   0.259587E-04   0.380268E+00   0.483201E+01
   0.305000E+04   0.187693E-04   0.260627E-04   0.380267E+00   0.483201E+01
   0.306000E+04   0.188227E-04   0.261655E-04   0.380266E+00   0.483201E+01
   0.307000E+04   0.188755E-04   0.262671E-04   0.380266E+00   0.483201E+01
   0.308000E+04   0.189278E-04   0.263673E-04   0.380265E+00   0.483201E+01
   0.309000E+04   0.189797E-04   0.264662E-04   0.380264E+00   0.483201E+01
   0.310000E+04   0.190310E-04   0.265638E-04   0.380263E+00   0.483201E+01
   0.311000E+04   0.190819E-04   0.266600E-04   0.380263E+00   0.483201E+01
   0.312000E+04   0.191322E-04   0.267548E-04   0.380262E+00   0.483201E+01
   0.313000E+04   0.191820E-04   0.268481E-04   0.380261E+00   0.483201E+01
   0.314000E+04   0.192312E-04   0.269400E-04   0.380261E+00   0.483201E+01
   0.315000E+04   0.192800E-04   0.270305E-04   0.380260E+00   0.483201E+01
   0.316000E+04   0.193282E-04   0.271194E-04   0.380259E+00   0.483201E+01
   0.317000E+04   0.193759E-04   0.272069E-04   0.380258E+00   0.483201E+01
   0.318000E+04   0.194230E-04   0.272928E-04   0.380258E+00   0.483201E+01
   0.319000E+04   0.194696E-04   0.273773E-04   0.380257E+00   0.483201E+01
   0.320000E+04   0.195157E-04   0.274603E-04   0.380256E+00   0.483201E+01
   0.321000E+04   0.195613E-04   0.275418E-04   0.380255E+00   0.483201E+01
   0.322000E+04   0.196063E-04   0.276219E-04   0.380255E+00   0.483201E+01
   0.323000E+04   0.196508E-04   0.277006E-04   0.380254E+00   0.483201E+01
   0.324000E+04   0.196949E-04   0.277779E-04   0.380253E+00   0.483201E+01
   0.325000E+04   0.197384E-04   0.278538E-04   0.380253E+00   0.483201E+01
   0.326000E+04   0.197814E-04   0.279285E-04   0.380252E+00   0.483201E+01
   0.327000E+04   0.198240E-04   0.280020E-04   0.380251E+00   0.483201E+01
   0.328000E+04   0.198661E-04   0.280744E-04   0.380250E+00   0.483201E+01
   0.329000E+04   0.199077E-04   0.281458E-04   0.380250E+00   0.483201E+01
   0.330000E+04   0.199490E-04   0.282162E-04   0.380249E+00   0.483201E+01
   0.331000E+04   0.199899E-04   0.282859E-04   0.380248E+00   0.483201E+01
   0.332000E+04   0.200305E-04   0.283549E-04   0.380248E+00   0.483201E+01
   0.333000E+04   0.200707E-04   0.284233E-04   0.380247E+00   0.483201E+01
   0.334000E+04   0.201107E-04   0.284914E-04   0.380246E+00   0.483201E+01
   0.335000E+04   0.201504E-04   0.285592E-04   0.380245E+00   0.483201E+01
   0.336000E+04   0.201899E-04   0.286270E-04   0.380245E+00   0.483201E+01
   0.337000E+04   0.202292E-04   0.286948E-04   0.380244E+00   0.483201E+01
   0.338000E+04   0.202685E-04   0.287629E-04   0.380243E+00   0.483201E+01
   0.339000E+04   0.203076E-04   0.288315E-04   0.380242E+00   0.483201E+01
   0.340000E+04   0.203467E-04   0.289006E-04   0.380242E+00   0.483201E+01
   0.341000E+04   0.203858E-04   0.289705E-04   0.380241E+00   0.483201E+01
   0.342000E+04   0.204250E-04   0.290413E-04   0.380240E+00   0.483201E+01
   0.343000E+04   0.204642E-04   0.291131E-04   0.380240E+00   0.483201E+01
   0.344000E+04   0.205036E-04   0.291862E-04   0.380239E+00   0.483201E+01
   0.345000E+04   0.205432E-04   0.292606E-04   0.380238E+00   0.483201E+01
   0.346000E+04   0.205829E-04   0.293364E-04   0.380238E+00   0.483201E+01
   0.347000E+04   0.206230E-04   0.294137E-04   0.380237E+00   0.483201E+01
   0.348000E+04   0.206632E-04   0.294926E-04   0.380236E+00   0.483201E+01
   0.349000E+04   0.207038E-04   0.295731E-04   0.380236E+00   0.483201E+01
   0.350000E+04   0.207446E-04   0.296553E-04   0.380235E+00   0.483201E+01
   0.351000E+04   0.207858E-04   0.297392E-04   0.380234E+00   0.483201E+01
   0.352000E+04   0.208274E-04   0.298248E-04   0.380234E+00   0.483201E+01
   0.353000E+04   0.208692E-04   0.299120E-04   0.380233E+00   0.483201E+01
   0.354000E+04   0.209114E-04   0.300008E-04   0.380232E+00   0.483201E+01
   0.355000E+04   0.209539E-04   0.300910E-04   0.380232E+00   0.483201E+01
   0.356000E+04   0.209968E-04   0.301827E-04   0.380231E+00   0.483201E+01
   0.357000E+04   0.210399E-04   0.302757E-04   0.380230E+00   0.483201E+01
   0.358000E+04   0.210834E-04   0.303698E-04   0.380230E+00   0.483201E+01
   0.359000E+04   0.211270E-04   0.304650E-04   0.380229E+00   0.483201E+01
   0.360000E+04   0.211710E-04   0.305610E-04   0.380229E+00   0.483201E+01
   0.361000E+04   0.212151E-04   0.306577E-04   0.380228E+00   0.483201E+01
   0.362000E+04   0.212593E-04   0.307549E-04   0.380227E+00   0.483201E+01
   0.363000E+04   0.213037E-04   0.308524E-04   0.380227E+00   0.483201E+01
   0.364000E+04   0.213482E-04   0.309500E-04   0.380227E+00   0.483201E+01
   0.365000E+04   0.213927E-04   0.310476E-04   0.380226E+00   0.483201E+01
   0.366000E+04   0.214372E-04   0.311450E-04   0.380225E+00   0.483201E+01
   0.367000E+04   0.214816E-04   0.312421E-04   0.380224E+00   0.483201E+01
   0.368000E+04   0.215260E-04   0.313386E-04   0.380224E+00   0.483201E+01
   0.369000E+04   0.215702E-04   0.314344E-04   0.380224E+00   0.483201E+01
   0.370000E+04   0.216143E-04   0.315293E-04   0.380224E+00   0.483201E+01
   0.371000E+04   0.216582E-04   0.316234E-04   0.380222E+00   0.483201E+01
   0.372000E+04   0.217019E-04   0.317164E-04   0.380221E+00   0.483201E+01
   0.373000E+04   0.217454E-04   0.318083E-04   0.380220E+00   0.483201E+01
   0.374000E+04   0.217885E-04   0.318990E-04   0.380220E+00   0.483201E+01
   0.375000E+04   0.218314E-04   0.319885E-04   0.380221E+00   0.483201E+01
   0.376000E+04   0.218740E-04   0.320767E-04   0.380220E+00   0.483201E+01
   0.377000E+04   0.219163E-04   0.321636E-04   0.380219E+00   0.483201E+01
   0.378000E+04   0.219582E-04   0.322492E-04   0.380217E+00   0.483201E+01
   0.379000E+04   0.219998E-04   0.323334E-04   0.380217E+00   0.483201E+01
   0.380000E+04   0.220410E-04   0.324164E-04   0.380217E+00   0.483201E+01
   0.381000E+04   0.220819E-04   0.324982E-04   0.380218E+00   0.483201E+01
   0.382000E+04   0.221225E-04   0.325787E-04   0.380217E+00   0.483201E+01
   0.383000E+04   0.221628E-04   0.326582E-04   0.380215E+00   0.483201E+01
   0.384000E+04   0.222027E-04   0.327365E-04   0.380214E+00   0.483201E+01
   0.385000E+04   0.222423E-04   0.328138E-04   0.380213E+00   0.483201E+01
   0.386000E+04   0.222816E-04   0.328901E-04   0.380214E+00   0.483201E+01
   0.387000E+04   0.223206E-04   0.329657E-04   0.380215E+00   0.483201E+01
   0.388000E+04   0.223594E-04   0.330405E-04   0.380214E+00   0.483201E+01
   0.389000E+04   0.223979E-04   0.331146E-04   0.380212E+00   0.483201E+01
   0.390000E+04   0.224362E-04   0.331881E-04   0.380210E+00   0.483201E+01
   0.391000E+04   0.224742E-04   0.332611E-04   0.380210E+00   0.483201E+01
   0.392000E+04   0.225122E-04   0.333339E-04   0.380212E+00   0.483201E+01
   0.393000E+04   0.225500E-04   0.334065E-04   0.380212E+00   0.483201E+01