title="breakthrough data set at     5 wells"
variables="time(days)","cavg","cpk","upk","zswi"
zone i=     1295
   0.100000E+02   0.323230E-11   0.461137E-11   0.470941E+00   0.485054E+01
   0.200000E+02   0.103546E-10   0.145537E-10   0.389906E+00   0.482978E+01
   0.300000E+02   0.256661E-10   0.358038E-10   0.389704E+00   0.482978E+01
   0.400000E+02   0.552687E-10   0.765679E-10   0.389835E+00   0.482978E+01
   0.500000E+02   0.108270E-09   0.148889E-09   0.389962E+00   0.482978E+01
   0.600000E+02   0.197686E-09   0.269700E-09   0.390080E+00   0.482978E+01
   0.700000E+02   0.341399E-09   0.461911E-09   0.390190E+00   0.482978E+01
   0.800000E+02   0.563123E-09   0.755476E-09   0.390292E+00   0.482978E+01
   0.900000E+02   0.893318E-09   0.118839E-08   0.390387E+00   0.482978E+01
   0.100000E+03   0.137002E-08   0.180755E-08   0.390476E+00   0.482978E+01
   0.110000E+03   0.203949E-08   0.266942E-08   0.390558E+00   0.482978E+01
   0.120000E+03   0.295673E-08   0.384050E-08   0.390636E+00   0.482978E+01
   0.130000E+03   0.418570E-08   0.539754E-08   0.390709E+00   0.482978E+01
   0.140000E+03   0.579940E-08   0.742743E-08   0.390778E+00   0.482978E+01
   0.150000E+03   0.787970E-08   0.100269E-07   0.390843E+00   0.482978E+01
   0.160000E+03   0.105169E-07   0.133021E-07   0.390905E+00   0.482978E+01
   0.170000E+03   0.138091E-07   0.173674E-07   0.390964E+00   0.482978E+01
   0.180000E+03   0.178614E-07   0.223447E-07   0.391020E+00   0.482978E+01
   0.190000E+03   0.227852E-07   0.283624E-07   0.391074E+00   0.482978E+01
   0.200000E+03   0.287011E-07   0.355592E-07   0.391073E+00   0.482978E+01
   0.210000E+03   0.357272E-07   0.440695E-07   0.391125E+00   0.482978E+01
   0.220000E+03   0.439867E-07   0.540335E-07   0.391175E+00   0.482978E+01
   0.230000E+03   0.536039E-07   0.655918E-07   0.391223E+00   0.482978E+01
   0.240000E+03   0.647024E-07   0.788845E-07   0.391268E+00   0.482978E+01
   0.250000E+03   0.774040E-07   0.940490E-07   0.391312E+00   0.482978E+01
   0.260000E+03   0.918273E-07   0.111219E-06   0.391354E+00   0.482978E+01
   0.270000E+03   0.108086E-06   0.130524E-06   0.391395E+00   0.482978E+01
   0.280000E+03   0.126289E-06   0.152085E-06   0.391434E+00   0.482978E+01
   0.290000E+03   0.146536E-06   0.176018E-06   0.391471E+00   0.482978E+01
   0.300000E+03   0.168921E-06   0.202429E-06   0.391508E+00   0.482978E+01
   0.310000E+03   0.193529E-06   0.231414E-06   0.391543E+00   0.482978E+01
   0.320000E+03   0.220434E-06   0.263061E-06   0.391578E+00   0.482978E+01
   0.330000E+03   0.249701E-06   0.297444E-06   0.391611E+00   0.482978E+01
   0.340000E+03   0.281384E-06   0.334628E-06   0.391644E+00   0.482978E+01
   0.350000E+03   0.315523E-06   0.374665E-06   0.391675E+00   0.482978E+01
   0.360000E+03   0.352149E-06   0.417596E-06   0.391707E+00   0.482978E+01
   0.370000E+03   0.391278E-06   0.463449E-06   0.391737E+00   0.482978E+01
   0.380000E+03   0.432915E-06   0.512241E-06   0.391767E+00   0.482978E+01
   0.390000E+03   0.477051E-06   0.563975E-06   0.391795E+00   0.482978E+01
   0.400000E+03   0.523665E-06   0.618647E-06   0.391824E+00   0.482978E+01
   0.410000E+03   0.572724E-06   0.676237E-06   0.391851E+00   0.482978E+01
   0.420000E+03   0.624182E-06   0.736717E-06   0.391878E+00   0.482978E+01
   0.430000E+03   0.677983E-06   0.800046E-06   0.391904E+00   0.482978E+01
   0.440000E+03   0.734059E-06   0.866174E-06   0.391930E+00   0.482978E+01
   0.450000E+03   0.792331E-06   0.935043E-06   0.391956E+00   0.482978E+01
   0.460000E+03   0.852714E-06   0.100658E-05   0.391981E+00   0.482978E+01
   0.470000E+03   0.915109E-06   0.108072E-05   0.392005E+00   0.482978E+01
   0.480000E+03   0.979413E-06   0.115737E-05   0.392029E+00   0.482978E+01
   0.490000E+03   0.104551E-05   0.123645E-05   0.392053E+00   0.482978E+01
   0.500000E+03   0.111329E-05   0.131785E-05   0.392076E+00   0.482978E+01
   0.510000E+03   0.118262E-05   0.140147E-05   0.392099E+00   0.482978E+01
   0.520000E+03   0.125337E-05   0.148722E-05   0.392122E+00   0.482978E+01
   0.530000E+03   0.132541E-05   0.157499E-05   0.392144E+00   0.482978E+01
   0.540000E+03   0.139860E-05   0.166465E-05   0.392166E+00   0.482978E+01
   0.550000E+03   0.147279E-05   0.175610E-05   0.392188E+00   0.482978E+01
   0.560000E+03   0.154785E-05   0.184923E-05   0.392209E+00   0.482978E+01
   0.570000E+03   0.162361E-05   0.194392E-05   0.392230E+00   0.482978E+01
   0.580000E+03   0.169994E-05   0.204006E-05   0.392251E+00   0.482978E+01
   0.590000E+03   0.177668E-05   0.213752E-05   0.392272E+00   0.482978E+01
   0.600000E+03   0.185368E-05   0.223621E-05   0.392292E+00   0.482978E+01
   0.610000E+03   0.193080E-05   0.233601E-05   0.392312E+00   0.482978E+01
   0.620000E+03   0.200789E-05   0.243681E-05   0.392332E+00   0.482978E+01
   0.630000E+03   0.208481E-05   0.253850E-05   0.392351E+00   0.482978E+01
   0.640000E+03   0.216141E-05   0.264100E-05   0.392369E+00   0.482978E+01
   0.650000E+03   0.223757E-05   0.274419E-05   0.392388E+00   0.482978E+01
   0.660000E+03   0.231316E-05   0.284798E-05   0.392406E+00   0.482978E+01
   0.670000E+03   0.238804E-05   0.295229E-05   0.392423E+00   0.482978E+01
   0.680000E+03   0.246211E-05   0.305701E-05   0.392440E+00   0.482978E+01
   0.690000E+03   0.253525E-05   0.316208E-05   0.392457E+00   0.482978E+01
   0.700000E+03   0.260736E-05   0.326741E-05   0.392473E+00   0.482978E+01
   0.710000E+03   0.267833E-05   0.337291E-05   0.392488E+00   0.482978E+01
   0.720000E+03   0.274809E-05   0.347852E-05   0.392504E+00   0.482978E+01
   0.730000E+03   0.281654E-05   0.358417E-05   0.392519E+00   0.482978E+01
   0.740000E+03   0.288361E-05   0.368979E-05   0.392533E+00   0.482978E+01
   0.750000E+03   0.294924E-05   0.379532E-05   0.392548E+00   0.482978E+01
   0.760000E+03   0.301336E-05   0.390069E-05   0.392562E+00   0.482978E+01
   0.770000E+03   0.307593E-05   0.400586E-05   0.392576E+00   0.482978E+01
   0.780000E+03   0.313690E-05   0.411077E-05   0.392590E+00   0.482978E+01
   0.790000E+03   0.319624E-05   0.421537E-05   0.392603E+00   0.482978E+01
   0.800000E+03   0.325391E-05   0.431961E-05   0.392617E+00   0.482978E+01
   0.810000E+03   0.330991E-05   0.442346E-05   0.392630E+00   0.482978E+01
   0.820000E+03   0.336421E-05   0.452687E-05   0.392643E+00   0.482978E+01
   0.830000E+03   0.341681E-05   0.462981E-05   0.392656E+00   0.482978E+01
   0.840000E+03   0.346770E-05   0.473225E-05   0.392669E+00   0.482978E+01
   0.850000E+03   0.351690E-05   0.483415E-05   0.392681E+00   0.482978E+01
   0.860000E+03   0.356440E-05   0.493549E-05   0.392694E+00   0.482978E+01
   0.870000E+03   0.361023E-05   0.503624E-05   0.392706E+00   0.482978E+01
   0.880000E+03   0.365440E-05   0.513638E-05   0.392719E+00   0.482978E+01
   0.890000E+03   0.369693E-05   0.523589E-05   0.392731E+00   0.482978E+01
   0.900000E+03   0.373785E-05   0.533476E-05   0.392743E+00   0.482978E+01
   0.910000E+03   0.377717E-05   0.543297E-05   0.392755E+00   0.482978E+01
   0.920000E+03   0.381495E-05   0.553050E-05   0.392767E+00   0.482978E+01
   0.930000E+03   0.385119E-05   0.562734E-05   0.392779E+00   0.482978E+01
   0.940000E+03   0.388594E-05   0.572350E-05   0.392791E+00   0.482978E+01
   0.950000E+03   0.391924E-05   0.581895E-05   0.392803E+00   0.482978E+01
   0.960000E+03   0.395110E-05   0.591370E-05   0.392815E+00   0.482978E+01
   0.970000E+03   0.398158E-05   0.600774E-05   0.392827E+00   0.482978E+01
   0.980000E+03   0.401070E-05   0.610106E-05   0.392838E+00   0.482978E+01
   0.990000E+03   0.403851E-05   0.619367E-05   0.392850E+00   0.482978E+01
   0.100000E+04   0.406502E-05   0.628557E-05   0.392861E+00   0.482978E+01
   0.101000E+04   0.409030E-05   0.637676E-05   0.392872E+00   0.482978E+01
   0.102000E+04   0.411436E-05   0.646723E-05   0.392883E+00   0.482978E+01
   0.103000E+04   0.413724E-05   0.655700E-05   0.392894E+00   0.482978E+01
   0.104000E+04   0.415899E-05   0.664607E-05   0.392905E+00   0.482978E+01
   0.105000E+04   0.417964E-05   0.673444E-05   0.392915E+00   0.482978E+01
   0.106000E+04   0.419923E-05   0.682212E-05   0.392925E+00   0.482978E+01
   0.107000E+04   0.421780E-05   0.690912E-05   0.392935E+00   0.482978E+01
   0.108000E+04   0.423539E-05   0.699544E-05   0.392945E+00   0.482978E+01
   0.109000E+04   0.425203E-05   0.708108E-05   0.392954E+00   0.482978E+01
   0.110000E+04   0.426778E-05   0.716607E-05   0.392964E+00   0.482978E+01
   0.111000E+04   0.428268E-05   0.725040E-05   0.392973E+00   0.482978E+01
   0.112000E+04   0.429677E-05   0.733408E-05   0.392982E+00   0.482978E+01
   0.113000E+04   0.431010E-05   0.741711E-05   0.392990E+00   0.482978E+01
   0.114000E+04   0.432271E-05   0.749952E-05   0.392999E+00   0.482978E+01
   0.115000E+04   0.433467E-05   0.758130E-05   0.393007E+00   0.482978E+01
   0.116000E+04   0.434603E-05   0.766247E-05   0.393015E+00   0.482978E+01
   0.117000E+04   0.435684E-05   0.774304E-05   0.393023E+00   0.482978E+01
   0.118000E+04   0.436716E-05   0.782303E-05   0.393031E+00   0.482978E+01
   0.119000E+04   0.437705E-05   0.790244E-05   0.393038E+00   0.482978E+01
   0.120000E+04   0.438658E-05   0.798129E-05   0.393046E+00   0.482978E+01
   0.121000E+04   0.439580E-05   0.805958E-05   0.393053E+00   0.482978E+01
   0.122000E+04   0.440478E-05   0.813735E-05   0.393061E+00   0.482978E+01
   0.123000E+04   0.441358E-05   0.821459E-05   0.393068E+00   0.482978E+01
   0.124000E+04   0.442226E-05   0.829134E-05   0.393075E+00   0.482978E+01
   0.125000E+04   0.443089E-05   0.836759E-05   0.393082E+00   0.482978E+01
   0.126000E+04   0.443953E-05   0.844337E-05   0.393089E+00   0.482978E+01
   0.127000E+04   0.444824E-05   0.851870E-05   0.393096E+00   0.482978E+01
   0.128000E+04   0.445708E-05   0.859360E-05   0.393103E+00   0.482978E+01
   0.129000E+04   0.446612E-05   0.866807E-05   0.393110E+00   0.482978E+01
   0.130000E+04   0.447541E-05   0.874215E-05   0.393117E+00   0.482978E+01
   0.131000E+04   0.448500E-05   0.881585E-05   0.393124E+00   0.482978E+01
   0.132000E+04   0.449496E-05   0.888919E-05   0.393131E+00   0.482978E+01
   0.133000E+04   0.450532E-05   0.896219E-05   0.393138E+00   0.482978E+01
   0.134000E+04   0.451614E-05   0.903486E-05   0.393144E+00   0.482978E+01
   0.135000E+04   0.452745E-05   0.910723E-05   0.393151E+00   0.482978E+01
   0.136000E+04   0.453928E-05   0.917931E-05   0.393158E+00   0.482978E+01
   0.137000E+04   0.455167E-05   0.925111E-05   0.393165E+00   0.482978E+01
   0.138000E+04   0.456464E-05   0.932265E-05   0.393171E+00   0.482978E+01
   0.139000E+04   0.457820E-05   0.939395E-05   0.393177E+00   0.482978E+01
   0.140000E+04   0.459268E-05   0.946510E-05   0.393189E+00   0.482978E+01
   0.141000E+04   0.460789E-05   0.953610E-05   0.393196E+00   0.482978E+01
   0.142000E+04   0.462382E-05   0.960694E-05   0.393199E+00   0.482978E+01
   0.143000E+04   0.464049E-05   0.967763E-05   0.393201E+00   0.482978E+01
   0.144000E+04   0.465788E-05   0.974820E-05   0.393207E+00   0.482978E+01
   0.145000E+04   0.467600E-05   0.981864E-05   0.393213E+00   0.482978E+01
   0.146000E+04   0.469484E-05   0.988896E-05   0.393217E+00   0.482978E+01
   0.147000E+04   0.471440E-05   0.995918E-05   0.393220E+00   0.482978E+01
   0.148000E+04   0.473467E-05   0.100293E-04   0.393225E+00   0.482978E+01
   0.149000E+04   0.475565E-05   0.100993E-04   0.393231E+00   0.482978E+01
   0.150000E+04   0.477733E-05   0.101693E-04   0.393235E+00   0.482978E+01
   0.151000E+04   0.479970E-05   0.102392E-04   0.393238E+00   0.482978E+01
   0.152000E+04   0.482277E-05   0.103090E-04   0.393242E+00   0.482978E+01
   0.153000E+04   0.484650E-05   0.103787E-04   0.393247E+00   0.482978E+01
   0.154000E+04   0.487091E-05   0.104484E-04   0.393252E+00   0.482978E+01
   0.155000E+04   0.489599E-05   0.105181E-04   0.393255E+00   0.482978E+01
   0.156000E+04   0.492172E-05   0.105877E-04   0.393259E+00   0.482978E+01
   0.157000E+04   0.494809E-05   0.106573E-04   0.393264E+00   0.482978E+01
   0.158000E+04   0.497511E-05   0.107268E-04   0.393269E+00   0.482978E+01
   0.159000E+04   0.500277E-05   0.107963E-04   0.393272E+00   0.482978E+01
   0.160000E+04   0.503106E-05   0.108658E-04   0.393275E+00   0.482978E+01
   0.161000E+04   0.505998E-05   0.109353E-04   0.393279E+00   0.482978E+01
   0.162000E+04   0.508952E-05   0.110047E-04   0.393284E+00   0.482978E+01
   0.163000E+04   0.511969E-05   0.110742E-04   0.393288E+00   0.482978E+01
   0.164000E+04   0.515047E-05   0.111436E-04   0.393291E+00   0.482978E+01
   0.165000E+04   0.518188E-05   0.112130E-04   0.393294E+00   0.482978E+01
   0.166000E+04   0.521390E-05   0.112824E-04   0.393298E+00   0.482978E+01
   0.167000E+04   0.524654E-05   0.113518E-04   0.393303E+00   0.482978E+01
   0.168000E+04   0.527980E-05   0.114212E-04   0.393306E+00   0.482978E+01
   0.169000E+04   0.531367E-05   0.114906E-04   0.393309E+00   0.482978E+01
   0.170000E+04   0.534817E-05   0.115599E-04   0.393313E+00   0.482978E+01
   0.171000E+04   0.538330E-05   0.116293E-04   0.393318E+00   0.482978E+01
   0.172000E+04   0.541905E-05   0.116987E-04   0.393321E+00   0.482978E+01
   0.173000E+04   0.545544E-05   0.117681E-04   0.393323E+00   0.482978E+01
   0.174000E+04   0.549246E-05   0.118375E-04   0.393326E+00   0.482978E+01
   0.175000E+04   0.553013E-05   0.119069E-04   0.393331E+00   0.482978E+01
   0.176000E+04   0.556844E-05   0.119763E-04   0.393336E+00   0.482978E+01
   0.177000E+04   0.560741E-05   0.120458E-04   0.393338E+00   0.482978E+01
   0.178000E+04   0.564704E-05   0.121152E-04   0.393341E+00   0.482978E+01
   0.179000E+04   0.568733E-05   0.121847E-04   0.393345E+00   0.482978E+01
   0.180000E+04   0.572830E-05   0.122541E-04   0.393349E+00   0.482978E+01
   0.181000E+04   0.576994E-05   0.123236E-04   0.393353E+00   0.482978E+01
   0.182000E+04   0.581228E-05   0.123931E-04   0.393355E+00   0.482978E+01
   0.183000E+04   0.585531E-05   0.124627E-04   0.393358E+00   0.482978E+01
   0.184000E+04   0.589904E-05   0.125322E-04   0.393363E+00   0.482978E+01
   0.185000E+04   0.594347E-05   0.126018E-04   0.393367E+00   0.482978E+01
   0.186000E+04   0.598862E-05   0.126714E-04   0.393369E+00   0.482978E+01
   0.187000E+04   0.603449E-05   0.127411E-04   0.393372E+00   0.482978E+01
   0.188000E+04   0.608108E-05   0.128108E-04   0.393376E+00   0.482978E+01
   0.189000E+04   0.612839E-05   0.128805E-04   0.393381E+00   0.482978E+01
   0.190000E+04   0.617644E-05   0.129502E-04   0.393384E+00   0.482978E+01
   0.191000E+04   0.622523E-05   0.130200E-04   0.393386E+00   0.482978E+01
   0.192000E+04   0.627476E-05   0.130899E-04   0.393390E+00   0.482978E+01
   0.193000E+04   0.632503E-05   0.131598E-04   0.393394E+00   0.482978E+01
   0.194000E+04   0.637605E-05   0.132298E-04   0.393398E+00   0.482978E+01
   0.195000E+04   0.642782E-05   0.132998E-04   0.393400E+00   0.482978E+01
   0.196000E+04   0.648034E-05   0.133698E-04   0.393403E+00   0.482978E+01
   0.197000E+04   0.653361E-05   0.134400E-04   0.393407E+00   0.482978E+01
   0.198000E+04   0.658763E-05   0.135101E-04   0.393412E+00   0.482978E+01
   0.199000E+04   0.664241E-05   0.135804E-04   0.393414E+00   0.482978E+01
   0.200000E+04   0.669794E-05   0.136507E-04   0.393416E+00   0.482978E+01
   0.201000E+04   0.675422E-05   0.137211E-04   0.393420E+00   0.482978E+01
   0.202000E+04   0.681124E-05   0.137916E-04   0.393424E+00   0.482978E+01
   0.203000E+04   0.686901E-05   0.138622E-04   0.393428E+00   0.482978E+01
   0.204000E+04   0.692752E-05   0.139328E-04   0.393430E+00   0.482978E+01
   0.205000E+04   0.698676E-05   0.140036E-04   0.393433E+00   0.482978E+01
   0.206000E+04   0.704674E-05   0.140744E-04   0.393437E+00   0.482978E+01
   0.207000E+04   0.710743E-05   0.141453E-04   0.393441E+00   0.482978E+01
   0.208000E+04   0.716885E-05   0.142163E-04   0.393443E+00   0.482978E+01
   0.209000E+04   0.723098E-05   0.142874E-04   0.393445E+00   0.482978E+01
   0.210000E+04   0.729381E-05   0.143586E-04   0.393449E+00   0.482978E+01
   0.211000E+04   0.735732E-05   0.144299E-04   0.393454E+00   0.482978E+01
   0.212000E+04   0.742152E-05   0.145013E-04   0.393457E+00   0.482978E+01
   0.213000E+04   0.748640E-05   0.145728E-04   0.393458E+00   0.482978E+01
   0.214000E+04   0.755194E-05   0.146444E-04   0.393461E+00   0.482978E+01
   0.215000E+04   0.761812E-05   0.147161E-04   0.393465E+00   0.482978E+01
   0.216000E+04   0.768494E-05   0.147879E-04   0.393469E+00   0.482978E+01
   0.217000E+04   0.775238E-05   0.148599E-04   0.393471E+00   0.482978E+01
   0.218000E+04   0.782043E-05   0.149319E-04   0.393474E+00   0.482978E+01
   0.219000E+04   0.788906E-05   0.150041E-04   0.393477E+00   0.482978E+01
   0.220000E+04   0.795828E-05   0.150763E-04   0.393481E+00   0.482978E+01
   0.221000E+04   0.802805E-05   0.151487E-04   0.393484E+00   0.482978E+01
   0.222000E+04   0.809838E-05   0.152212E-04   0.393486E+00   0.482978E+01
   0.223000E+04   0.816923E-05   0.152938E-04   0.393489E+00   0.482978E+01
   0.224000E+04   0.824059E-05   0.153665E-04   0.393493E+00   0.482978E+01
   0.225000E+04   0.831244E-05   0.154393E-04   0.393497E+00   0.482978E+01
   0.226000E+04   0.838477E-05   0.155122E-04   0.393498E+00   0.482978E+01
   0.227000E+04   0.845755E-05   0.155853E-04   0.393500E+00   0.482978E+01
   0.228000E+04   0.853077E-05   0.156584E-04   0.393504E+00   0.482978E+01
   0.229000E+04   0.860440E-05   0.157316E-04   0.393508E+00   0.482978E+01
   0.230000E+04   0.867843E-05   0.158050E-04   0.393510E+00   0.482978E+01
   0.231000E+04   0.875283E-05   0.158784E-04   0.393512E+00   0.482978E+01
   0.232000E+04   0.882758E-05   0.159519E-04   0.393515E+00   0.482978E+01
   0.233000E+04   0.890267E-05   0.160255E-04   0.393519E+00   0.482978E+01
   0.234000E+04   0.897805E-05   0.160992E-04   0.393522E+00   0.482978E+01
   0.235000E+04   0.905373E-05   0.161730E-04   0.393524E+00   0.482978E+01
   0.236000E+04   0.912966E-05   0.162468E-04   0.393526E+00   0.482978E+01
   0.237000E+04   0.920582E-05   0.163208E-04   0.393530E+00   0.482978E+01
   0.238000E+04   0.928218E-05   0.163947E-04   0.393534E+00   0.482978E+01
   0.239000E+04   0.935872E-05   0.164688E-04   0.393536E+00   0.482978E+01
   0.240000E+04   0.943542E-05   0.165428E-04   0.393537E+00   0.482978E+01
   0.241000E+04   0.951223E-05   0.166170E-04   0.393540E+00   0.482978E+01
   0.242000E+04   0.958912E-05   0.166911E-04   0.393543E+00   0.482978E+01
   0.243000E+04   0.966606E-05   0.167653E-04   0.393547E+00   0.482978E+01
   0.244000E+04   0.974303E-05   0.168394E-04   0.393548E+00   0.482978E+01
   0.245000E+04   0.982000E-05   0.169136E-04   0.393551E+00   0.482978E+01
   0.246000E+04   0.989694E-05   0.169878E-04   0.393554E+00   0.482978E+01
   0.247000E+04   0.997382E-05   0.170619E-04   0.393557E+00   0.482978E+01
   0.248000E+04   0.100506E-04   0.171360E-04   0.393558E+00   0.482978E+01
   0.249000E+04   0.101273E-04   0.172101E-04   0.393560E+00   0.482978E+01
   0.250000E+04   0.102040E-04   0.172841E-04   0.393563E+00   0.482978E+01
   0.251000E+04   0.102804E-04   0.173581E-04   0.393567E+00   0.482978E+01
   0.252000E+04   0.103567E-04   0.174319E-04   0.393569E+00   0.482978E+01
   0.253000E+04   0.104329E-04   0.175057E-04   0.393570E+00   0.482978E+01
   0.254000E+04   0.105090E-04   0.175794E-04   0.393572E+00   0.482978E+01
   0.255000E+04   0.105848E-04   0.176530E-04   0.393575E+00   0.482978E+01
   0.256000E+04   0.106605E-04   0.177265E-04   0.393578E+00   0.482978E+01
   0.257000E+04   0.107361E-04   0.177998E-04   0.393579E+00   0.482978E+01
   0.258000E+04   0.108115E-04   0.178730E-04   0.393581E+00   0.482978E+01
   0.259000E+04   0.108867E-04   0.179461E-04   0.393584E+00   0.482978E+01
   0.260000E+04   0.109619E-04   0.180190E-04   0.393586E+00   0.482978E+01
   0.261000E+04   0.110370E-04   0.180917E-04   0.393588E+00   0.482978E+01
   0.262000E+04   0.111120E-04   0.181643E-04   0.393588E+00   0.482978E+01
   0.263000E+04   0.111870E-04   0.182366E-04   0.393591E+00   0.482978E+01
   0.264000E+04   0.112619E-04   0.183088E-04   0.393594E+00   0.482978E+01
   0.265000E+04   0.113369E-04   0.183808E-04   0.393596E+00   0.482978E+01
   0.266000E+04   0.114119E-04   0.184525E-04   0.393596E+00   0.482978E+01
   0.267000E+04   0.114871E-04   0.185241E-04   0.393597E+00   0.482978E+01
   0.268000E+04   0.115623E-04   0.185954E-04   0.393600E+00   0.482978E+01
   0.269000E+04   0.116378E-04   0.186665E-04   0.393603E+00   0.482978E+01
   0.270000E+04   0.117134E-04   0.187374E-04   0.393604E+00   0.482978E+01
   0.271000E+04   0.117892E-04   0.188080E-04   0.393605E+00   0.482978E+01
   0.272000E+04   0.118654E-04   0.188785E-04   0.393607E+00   0.482978E+01
   0.273000E+04   0.119418E-04   0.189487E-04   0.393609E+00   0.482978E+01
   0.274000E+04   0.120186E-04   0.190187E-04   0.393611E+00   0.482978E+01
   0.275000E+04   0.120957E-04   0.190885E-04   0.393611E+00   0.482978E+01
   0.276000E+04   0.121733E-04   0.191580E-04   0.393613E+00   0.482978E+01
   0.277000E+04   0.122512E-04   0.192274E-04   0.393616E+00   0.482978E+01
   0.278000E+04   0.123296E-04   0.192965E-04   0.393618E+00   0.482978E+01
   0.279000E+04   0.124085E-04   0.193654E-04   0.393619E+00   0.482978E+01
   0.280000E+04   0.124879E-04   0.194341E-04   0.393619E+00   0.482978E+01
   0.281000E+04   0.125678E-04   0.195026E-04   0.393621E+00   0.482978E+01
   0.282000E+04   0.126482E-04   0.195709E-04   0.393624E+00   0.482978E+01
   0.283000E+04   0.127292E-04   0.196390E-04   0.393626E+00   0.482978E+01
   0.284000E+04   0.128107E-04   0.197070E-04   0.393626E+00   0.482978E+01
   0.285000E+04   0.128928E-04   0.197747E-04   0.393627E+00   0.482978E+01
   0.286000E+04   0.129754E-04   0.198423E-04   0.393630E+00   0.482978E+01
   0.287000E+04   0.130587E-04   0.199097E-04   0.393632E+00   0.482978E+01
   0.288000E+04   0.131425E-04   0.199770E-04   0.393632E+00   0.482978E+01
   0.289000E+04   0.132269E-04   0.200441E-04   0.393633E+00   0.482978E+01
   0.290000E+04   0.133118E-04   0.201110E-04   0.393635E+00   0.482978E+01
   0.291000E+04   0.133974E-04   0.201778E-04   0.393638E+00   0.482978E+01
   0.292000E+04   0.134835E-04   0.202444E-04   0.393639E+00   0.482978E+01
   0.293000E+04   0.135703E-04   0.203110E-04   0.393639E+00   0.482978E+01
   0.294000E+04   0.136576E-04   0.203773E-04   0.393640E+00   0.482978E+01
   0.295000E+04   0.137454E-04   0.204436E-04   0.393643E+00   0.482978E+01
   0.296000E+04   0.138339E-04   0.205097E-04   0.393645E+00   0.482978E+01
   0.297000E+04   0.139228E-04   0.205757E-04   0.393646E+00   0.482978E+01
   0.298000E+04   0.140123E-04   0.206416E-04   0.393647E+00   0.482978E+01
   0.299000E+04   0.141024E-04   0.207074E-04   0.393648E+00   0.482978E+01
   0.300000E+04   0.141929E-04   0.207731E-04   0.393651E+00   0.482978E+01
   0.301000E+04   0.142840E-04   0.208387E-04   0.393652E+00   0.482978E+01
   0.302000E+04   0.143755E-04   0.209041E-04   0.393652E+00   0.482978E+01
   0.303000E+04   0.144676E-04   0.209695E-04   0.393654E+00   0.482978E+01
   0.304000E+04   0.145600E-04   0.210348E-04   0.393657E+00   0.482978E+01
   0.305000E+04   0.146530E-04   0.211000E-04   0.393658E+00   0.482978E+01
   0.306000E+04   0.147463E-04   0.211651E-04   0.393658E+00   0.482978E+01
   0.307000E+04   0.148401E-04   0.212301E-04   0.393659E+00   0.482978E+01
   0.308000E+04   0.149343E-04   0.212950E-04   0.393661E+00   0.482978E+01
   0.309000E+04   0.150289E-04   0.213598E-04   0.393664E+00   0.482978E+01
   0.310000E+04   0.151238E-04   0.214246E-04   0.393665E+00   0.482978E+01
   0.311000E+04   0.152191E-04   0.214893E-04   0.393665E+00   0.482978E+01
   0.312000E+04   0.153147E-04   0.215539E-04   0.393667E+00   0.482978E+01
   0.313000E+04   0.154106E-04   0.216184E-04   0.393669E+00   0.482978E+01
   0.314000E+04   0.155069E-04   0.216828E-04   0.393670E+00   0.482978E+01
   0.315000E+04   0.156034E-04   0.217472E-04   0.393671E+00   0.482978E+01
   0.316000E+04   0.157002E-04   0.218115E-04   0.393672E+00   0.482978E+01
   0.317000E+04   0.157972E-04   0.218757E-04   0.393675E+00   0.482978E+01
   0.318000E+04   0.158945E-04   0.219399E-04   0.393677E+00   0.482978E+01
   0.319000E+04   0.159920E-04   0.220039E-04   0.393677E+00   0.482978E+01
   0.320000E+04   0.160897E-04   0.220679E-04   0.393677E+00   0.482978E+01
   0.321000E+04   0.161876E-04   0.221318E-04   0.393679E+00   0.482978E+01
   0.322000E+04   0.162856E-04   0.221957E-04   0.393682E+00   0.482978E+01
   0.323000E+04   0.163837E-04   0.222595E-04   0.393684E+00   0.482978E+01
   0.324000E+04   0.164820E-04   0.223232E-04   0.393684E+00   0.482978E+01
   0.325000E+04   0.165804E-04   0.223868E-04   0.393685E+00   0.482978E+01
   0.326000E+04   0.166788E-04   0.224504E-04   0.393687E+00   0.482978E+01
   0.327000E+04   0.167773E-04   0.225139E-04   0.393689E+00   0.482978E+01
   0.328000E+04   0.168758E-04   0.225773E-04   0.393689E+00   0.482978E+01
   0.329000E+04   0.169743E-04   0.226406E-04   0.393690E+00   0.482978E+01
   0.330000E+04   0.170727E-04   0.227039E-04   0.393692E+00   0.482978E+01
   0.331000E+04   0.171711E-04   0.227671E-04   0.393695E+00   0.482978E+01
   0.332000E+04   0.172695E-04   0.228302E-04   0.393695E+00   0.482978E+01
   0.333000E+04   0.173678E-04   0.228932E-04   0.393695E+00   0.482978E+01
   0.334000E+04   0.174660E-04   0.229562E-04   0.393696E+00   0.482978E+01
   0.335000E+04   0.175642E-04   0.230190E-04   0.393699E+00   0.482978E+01
   0.336000E+04   0.176622E-04   0.230818E-04   0.393701E+00   0.482978E+01
   0.337000E+04   0.177601E-04   0.231444E-04   0.393701E+00   0.482978E+01
   0.338000E+04   0.178579E-04   0.232070E-04   0.393701E+00   0.482978E+01
   0.339000E+04   0.179555E-04   0.232695E-04   0.393703E+00   0.482978E+01
   0.340000E+04   0.180531E-04   0.233319E-04   0.393705E+00   0.482978E+01
   0.341000E+04   0.181505E-04   0.233941E-04   0.393706E+00   0.482978E+01
   0.342000E+04   0.182477E-04   0.234563E-04   0.393706E+00   0.482978E+01
   0.343000E+04   0.183449E-04   0.235184E-04   0.393708E+00   0.482978E+01
   0.344000E+04   0.184419E-04   0.235803E-04   0.393710E+00   0.482978E+01
   0.345000E+04   0.185387E-04   0.236422E-04   0.393712E+00   0.482978E+01
   0.346000E+04   0.186355E-04   0.237039E-04   0.393711E+00   0.482978E+01
   0.347000E+04   0.187321E-04   0.237655E-04   0.393711E+00   0.482978E+01
   0.348000E+04   0.188286E-04   0.238270E-04   0.393714E+00   0.482978E+01
   0.349000E+04   0.189251E-04   0.238884E-04   0.393716E+00   0.482978E+01
   0.350000E+04   0.190214E-04   0.239497E-04   0.393717E+00   0.482978E+01
   0.351000E+04   0.191176E-04   0.240108E-04   0.393716E+00   0.482978E+01
   0.352000E+04   0.192137E-04   0.240718E-04   0.393718E+00   0.482978E+01
   0.353000E+04   0.193097E-04   0.241327E-04   0.393720E+00   0.482978E+01
   0.354000E+04   0.194056E-04   0.241935E-04   0.393722E+00   0.482978E+01
   0.355000E+04   0.195015E-04   0.242542E-04   0.393722E+00   0.482978E+01
   0.356000E+04   0.195973E-04   0.243147E-04   0.393722E+00   0.482978E+01
   0.357000E+04   0.196931E-04   0.243751E-04   0.393724E+00   0.482978E+01
   0.358000E+04   0.197889E-04   0.244354E-04   0.393726E+00   0.482978E+01
   0.359000E+04   0.198847E-04   0.244956E-04   0.393725E+00   0.482978E+01
   0.360000E+04   0.199804E-04   0.245557E-04   0.393725E+00   0.482978E+01
   0.361000E+04   0.200761E-04   0.246157E-04   0.393728E+00   0.482978E+01
   0.362000E+04   0.201719E-04   0.246755E-04   0.393731E+00   0.482978E+01
   0.363000E+04   0.202677E-04   0.247353E-04   0.393732E+00   0.482978E+01
   0.364000E+04   0.203635E-04   0.247949E-04   0.393731E+00   0.482978E+01
   0.365000E+04   0.204593E-04   0.248544E-04   0.393731E+00   0.482978E+01
   0.366000E+04   0.205553E-04   0.249139E-04   0.393732E+00   0.482978E+01
   0.367000E+04   0.206512E-04   0.249732E-04   0.393735E+00   0.482978E+01
   0.368000E+04   0.207473E-04   0.250325E-04   0.393735E+00   0.482978E+01
   0.369000E+04   0.208435E-04   0.250916E-04   0.393736E+00   0.482978E+01
   0.370000E+04   0.209397E-04   0.251507E-04   0.393738E+00   0.482978E+01
   0.371000E+04   0.210360E-04   0.252097E-04   0.393740E+00   0.482978E+01
   0.372000E+04   0.211324E-04   0.252686E-04   0.393741E+00   0.482978E+01
   0.373000E+04   0.212288E-04   0.253274E-04   0.393740E+00   0.482978E+01
   0.374000E+04   0.213254E-04   0.253862E-04   0.393741E+00   0.482978E+01
   0.375000E+04   0.214221E-04   0.254448E-04   0.393743E+00   0.482978E+01
   0.376000E+04   0.215188E-04   0.255034E-04   0.393744E+00   0.482978E+01
   0.377000E+04   0.216157E-04   0.255620E-04   0.393744E+00   0.482978E+01
   0.378000E+04   0.217126E-04   0.256204E-04   0.393744E+00   0.482978E+01
   0.379000E+04   0.218097E-04   0.256788E-04   0.393746E+00   0.482978E+01
   0.380000E+04   0.219068E-04   0.257371E-04   0.393748E+00   0.482978E+01
   0.381000E+04   0.220041E-04   0.257953E-04   0.393749E+00   0.482978E+01
   0.382000E+04   0.221014E-04   0.258535E-04   0.393750E+00   0.482978E+01
   0.383000E+04   0.221988E-04   0.259116E-04   0.393750E+00   0.482978E+01
   0.384000E+04   0.222963E-04   0.259696E-04   0.393751E+00   0.482978E+01
   0.385000E+04   0.223938E-04   0.260276E-04   0.393752E+00   0.482978E+01
   0.386000E+04   0.224915E-04   0.260855E-04   0.393752E+00   0.482978E+01
   0.387000E+04   0.225893E-04   0.261433E-04   0.393752E+00   0.482978E+01
   0.388000E+04   0.226872E-04   0.262010E-04   0.393755E+00   0.482978E+01
   0.389000E+04   0.227851E-04   0.262587E-04   0.393757E+00   0.482978E+01
   0.390000E+04   0.228831E-04   0.263163E-04   0.393757E+00   0.482978E+01
   0.391000E+04   0.229812E-04   0.263738E-04   0.393757E+00   0.482978E+01
   0.392000E+04   0.230794E-04   0.264312E-04   0.393757E+00   0.482978E+01
   0.393000E+04   0.231777E-04   0.264886E-04   0.393759E+00   0.482978E+01