title="breakthrough data set at     5 wells"
variables="time(days)","cavg","cpk","upk","zswi"
zone i=     1295
   0.100000E+02   0.119783E-11   0.224906E-11   0.460185E+00   0.486603E+01
   0.200000E+02   0.323655E-11   0.544273E-11   0.372745E+00   0.484053E+01
   0.300000E+02   0.703925E-11   0.120822E-10   0.372420E+00   0.484053E+01
   0.400000E+02   0.136412E-10   0.236797E-10   0.372530E+00   0.484053E+01
   0.500000E+02   0.245503E-10   0.428919E-10   0.372658E+00   0.484053E+01
   0.600000E+02   0.419402E-10   0.735378E-10   0.372794E+00   0.484053E+01
   0.700000E+02   0.688969E-10   0.121036E-09   0.372934E+00   0.484053E+01
   0.800000E+02   0.109693E-09   0.192889E-09   0.373072E+00   0.484053E+01
   0.900000E+02   0.170113E-09   0.299255E-09   0.373207E+00   0.484053E+01
   0.100000E+03   0.257788E-09   0.453524E-09   0.373340E+00   0.484053E+01
   0.110000E+03   0.382529E-09   0.672892E-09   0.373468E+00   0.484053E+01
   0.120000E+03   0.556454E-09   0.978425E-09   0.373463E+00   0.484053E+01
   0.130000E+03   0.794808E-09   0.139669E-08   0.373591E+00   0.484053E+01
   0.140000E+03   0.111607E-08   0.195983E-08   0.373827E+00   0.484053E+01
   0.150000E+03   0.154099E-08   0.270324E-08   0.373823E+00   0.484053E+01
   0.160000E+03   0.209445E-08   0.366933E-08   0.373935E+00   0.484053E+01
   0.170000E+03   0.280418E-08   0.490469E-08   0.374041E+00   0.484053E+01
   0.180000E+03   0.370081E-08   0.645995E-08   0.374141E+00   0.484053E+01
   0.190000E+03   0.481743E-08   0.838866E-08   0.374237E+00   0.484053E+01
   0.200000E+03   0.618901E-08   0.107460E-07   0.374328E+00   0.484053E+01
   0.210000E+03   0.785179E-08   0.135875E-07   0.374416E+00   0.484053E+01
   0.220000E+03   0.984257E-08   0.169672E-07   0.374500E+00   0.484053E+01
   0.230000E+03   0.121981E-07   0.209366E-07   0.374580E+00   0.484053E+01
   0.240000E+03   0.149547E-07   0.255436E-07   0.374657E+00   0.484053E+01
   0.250000E+03   0.181473E-07   0.308313E-07   0.374732E+00   0.484053E+01
   0.260000E+03   0.218098E-07   0.368372E-07   0.374804E+00   0.484053E+01
   0.270000E+03   0.259742E-07   0.435926E-07   0.374873E+00   0.484053E+01
   0.280000E+03   0.306707E-07   0.511219E-07   0.374940E+00   0.484053E+01
   0.290000E+03   0.359271E-07   0.594418E-07   0.375005E+00   0.484053E+01
   0.300000E+03   0.417686E-07   0.685609E-07   0.375068E+00   0.484053E+01
   0.310000E+03   0.482175E-07   0.784785E-07   0.375128E+00   0.484053E+01
   0.320000E+03   0.552927E-07   0.891844E-07   0.375187E+00   0.484053E+01
   0.330000E+03   0.630092E-07   0.100658E-06   0.375244E+00   0.484053E+01
   0.340000E+03   0.713782E-07   0.112870E-06   0.375300E+00   0.484053E+01
   0.350000E+03   0.804070E-07   0.125780E-06   0.375353E+00   0.484053E+01
   0.360000E+03   0.900991E-07   0.141208E-06   0.375405E+00   0.484053E+01
   0.370000E+03   0.100455E-06   0.158501E-06   0.375456E+00   0.484053E+01
   0.380000E+03   0.111474E-06   0.177143E-06   0.375505E+00   0.484053E+01
   0.390000E+03   0.123153E-06   0.197174E-06   0.375554E+00   0.484053E+01
   0.400000E+03   0.135492E-06   0.218645E-06   0.375601E+00   0.484053E+01
   0.410000E+03   0.148489E-06   0.241615E-06   0.375647E+00   0.484053E+01
   0.420000E+03   0.162149E-06   0.266159E-06   0.375692E+00   0.484053E+01
   0.430000E+03   0.176478E-06   0.292366E-06   0.375736E+00   0.484053E+01
   0.440000E+03   0.191487E-06   0.320345E-06   0.375779E+00   0.484053E+01
   0.450000E+03   0.207191E-06   0.350218E-06   0.375822E+00   0.484053E+01
   0.460000E+03   0.223609E-06   0.382122E-06   0.375863E+00   0.484053E+01
   0.470000E+03   0.240761E-06   0.416202E-06   0.375904E+00   0.484053E+01
   0.480000E+03   0.258673E-06   0.452607E-06   0.375944E+00   0.484053E+01
   0.490000E+03   0.277367E-06   0.491486E-06   0.375983E+00   0.484053E+01
   0.500000E+03   0.296868E-06   0.532978E-06   0.376022E+00   0.484053E+01
   0.510000E+03   0.317200E-06   0.577213E-06   0.376059E+00   0.484053E+01
   0.520000E+03   0.338386E-06   0.624303E-06   0.376096E+00   0.484053E+01
   0.530000E+03   0.360449E-06   0.674349E-06   0.376132E+00   0.484053E+01
   0.540000E+03   0.383411E-06   0.727437E-06   0.376168E+00   0.484053E+01
   0.550000E+03   0.407299E-06   0.783645E-06   0.376202E+00   0.484053E+01
   0.560000E+03   0.432141E-06   0.843055E-06   0.376236E+00   0.484053E+01
   0.570000E+03   0.457973E-06   0.905758E-06   0.376269E+00   0.484053E+01
   0.580000E+03   0.484840E-06   0.971868E-06   0.376302E+00   0.484053E+01
   0.590000E+03   0.512796E-06   0.104153E-05   0.376333E+00   0.484053E+01
   0.600000E+03   0.541905E-06   0.111491E-05   0.376365E+00   0.484053E+01
   0.610000E+03   0.572240E-06   0.119223E-05   0.376395E+00   0.484053E+01
   0.620000E+03   0.603883E-06   0.127373E-05   0.376425E+00   0.484053E+01
   0.630000E+03   0.636922E-06   0.135969E-05   0.376454E+00   0.484053E+01
   0.640000E+03   0.671450E-06   0.145039E-05   0.376483E+00   0.484053E+01
   0.650000E+03   0.707559E-06   0.154614E-05   0.376511E+00   0.484053E+01
   0.660000E+03   0.745337E-06   0.164722E-05   0.376539E+00   0.484053E+01
   0.670000E+03   0.784872E-06   0.175391E-05   0.376566E+00   0.484053E+01
   0.680000E+03   0.826238E-06   0.186647E-05   0.376593E+00   0.484053E+01
   0.690000E+03   0.869505E-06   0.198510E-05   0.376619E+00   0.484053E+01
   0.700000E+03   0.914728E-06   0.210999E-05   0.376645E+00   0.484053E+01
   0.710000E+03   0.961953E-06   0.224124E-05   0.376670E+00   0.484053E+01
   0.720000E+03   0.101121E-05   0.237895E-05   0.376695E+00   0.484053E+01
   0.730000E+03   0.106253E-05   0.252313E-05   0.376720E+00   0.484053E+01
   0.740000E+03   0.111591E-05   0.267379E-05   0.376744E+00   0.484053E+01
   0.750000E+03   0.117136E-05   0.283086E-05   0.376767E+00   0.484053E+01
   0.760000E+03   0.122889E-05   0.299430E-05   0.376790E+00   0.484053E+01
   0.770000E+03   0.128847E-05   0.316400E-05   0.376813E+00   0.484053E+01
   0.780000E+03   0.135011E-05   0.333989E-05   0.376835E+00   0.484053E+01
   0.790000E+03   0.141380E-05   0.352189E-05   0.376857E+00   0.484053E+01
   0.800000E+03   0.147952E-05   0.370993E-05   0.376879E+00   0.484053E+01
   0.810000E+03   0.154727E-05   0.390397E-05   0.376900E+00   0.484053E+01
   0.820000E+03   0.161706E-05   0.410400E-05   0.376920E+00   0.484053E+01
   0.830000E+03   0.168889E-05   0.431006E-05   0.376941E+00   0.484053E+01
   0.840000E+03   0.176276E-05   0.452220E-05   0.376961E+00   0.484053E+01
   0.850000E+03   0.183870E-05   0.474051E-05   0.376980E+00   0.484053E+01
   0.860000E+03   0.191672E-05   0.496514E-05   0.377000E+00   0.484053E+01
   0.870000E+03   0.199685E-05   0.519625E-05   0.377018E+00   0.484053E+01
   0.880000E+03   0.207912E-05   0.543404E-05   0.377037E+00   0.484053E+01
   0.890000E+03   0.216357E-05   0.567874E-05   0.377055E+00   0.484053E+01
   0.900000E+03   0.225023E-05   0.593059E-05   0.377073E+00   0.484053E+01
   0.910000E+03   0.233914E-05   0.618986E-05   0.377091E+00   0.484053E+01
   0.920000E+03   0.243035E-05   0.645683E-05   0.377108E+00   0.484053E+01
   0.930000E+03   0.252389E-05   0.673181E-05   0.377125E+00   0.484053E+01
   0.940000E+03   0.261981E-05   0.701508E-05   0.377142E+00   0.484053E+01
   0.950000E+03   0.271816E-05   0.730696E-05   0.377159E+00   0.484053E+01
   0.960000E+03   0.281897E-05   0.760775E-05   0.377175E+00   0.484053E+01
   0.970000E+03   0.292229E-05   0.791775E-05   0.377191E+00   0.484053E+01
   0.980000E+03   0.302815E-05   0.823725E-05   0.377207E+00   0.484053E+01
   0.990000E+03   0.313659E-05   0.856655E-05   0.377222E+00   0.484053E+01
   0.100000E+04   0.324763E-05   0.890589E-05   0.377238E+00   0.484053E+01
   0.101000E+04   0.336130E-05   0.925552E-05   0.377253E+00   0.484053E+01
   0.102000E+04   0.347760E-05   0.961564E-05   0.377267E+00   0.484053E+01
   0.103000E+04   0.359654E-05   0.998644E-05   0.377282E+00   0.484053E+01
   0.104000E+04   0.371809E-05   0.103680E-04   0.377296E+00   0.484053E+01
   0.105000E+04   0.384224E-05   0.107605E-04   0.377311E+00   0.484053E+01
   0.106000E+04   0.396894E-05   0.111639E-04   0.377325E+00   0.484053E+01
   0.107000E+04   0.409811E-05   0.115781E-04   0.377338E+00   0.484053E+01
   0.108000E+04   0.422969E-05   0.120030E-04   0.377352E+00   0.484053E+01
   0.109000E+04   0.436355E-05   0.124385E-04   0.377365E+00   0.484053E+01
   0.110000E+04   0.449956E-05   0.128843E-04   0.377378E+00   0.484053E+01
   0.111000E+04   0.463756E-05   0.133399E-04   0.377391E+00   0.484053E+01
   0.112000E+04   0.477737E-05   0.138050E-04   0.377404E+00   0.484053E+01
   0.113000E+04   0.491876E-05   0.142790E-04   0.377417E+00   0.484053E+01
   0.114000E+04   0.506151E-05   0.147612E-04   0.377430E+00   0.484053E+01
   0.115000E+04   0.520533E-05   0.152509E-04   0.377442E+00   0.484053E+01
   0.116000E+04   0.534993E-05   0.157472E-04   0.377454E+00   0.484053E+01
   0.117000E+04   0.549499E-05   0.162493E-04   0.377466E+00   0.484053E+01
   0.118000E+04   0.564017E-05   0.167562E-04   0.377478E+00   0.484053E+01
   0.119000E+04   0.578510E-05   0.172667E-04   0.377490E+00   0.484053E+01
   0.120000E+04   0.592939E-05   0.177797E-04   0.377501E+00   0.484053E+01
   0.121000E+04   0.607266E-05   0.182940E-04   0.377513E+00   0.484053E+01
   0.122000E+04   0.621448E-05   0.188083E-04   0.377524E+00   0.484053E+01
   0.123000E+04   0.635444E-05   0.193214E-04   0.377535E+00   0.484053E+01
   0.124000E+04   0.649212E-05   0.198318E-04   0.377546E+00   0.484053E+01
   0.125000E+04   0.662712E-05   0.203384E-04   0.377557E+00   0.484053E+01
   0.126000E+04   0.675904E-05   0.208398E-04   0.377567E+00   0.484053E+01
   0.127000E+04   0.688749E-05   0.213348E-04   0.377578E+00   0.484053E+01
   0.128000E+04   0.701214E-05   0.218222E-04   0.377588E+00   0.484053E+01
   0.129000E+04   0.713267E-05   0.223009E-04   0.377598E+00   0.484053E+01
   0.130000E+04   0.724883E-05   0.227701E-04   0.377608E+00   0.484053E+01
   0.131000E+04   0.736044E-05   0.232289E-04   0.377618E+00   0.484053E+01
   0.132000E+04   0.746739E-05   0.236770E-04   0.377628E+00   0.484053E+01
   0.133000E+04   0.756967E-05   0.241140E-04   0.377638E+00   0.484053E+01
   0.134000E+04   0.766735E-05   0.245402E-04   0.377647E+00   0.484053E+01
   0.135000E+04   0.776063E-05   0.249557E-04   0.377656E+00   0.484053E+01
   0.136000E+04   0.784980E-05   0.253616E-04   0.377665E+00   0.484053E+01
   0.137000E+04   0.793526E-05   0.257588E-04   0.377674E+00   0.484053E+01
   0.138000E+04   0.801750E-05   0.261488E-04   0.377683E+00   0.484053E+01
   0.139000E+04   0.809709E-05   0.265332E-04   0.377692E+00   0.484053E+01
   0.140000E+04   0.817468E-05   0.269141E-04   0.377701E+00   0.484053E+01
   0.141000E+04   0.825093E-05   0.272934E-04   0.377709E+00   0.484053E+01
   0.142000E+04   0.832656E-05   0.276733E-04   0.377717E+00   0.484053E+01
   0.143000E+04   0.840228E-05   0.280561E-04   0.377726E+00   0.484053E+01
   0.144000E+04   0.847881E-05   0.284438E-04   0.377734E+00   0.484053E+01
   0.145000E+04   0.855681E-05   0.288385E-04   0.377742E+00   0.484053E+01
   0.146000E+04   0.863694E-05   0.292422E-04   0.377750E+00   0.484053E+01
   0.147000E+04   0.871978E-05   0.296566E-04   0.377758E+00   0.484053E+01
   0.148000E+04   0.880588E-05   0.300832E-04   0.377765E+00   0.484053E+01
   0.149000E+04   0.889572E-05   0.305235E-04   0.377773E+00   0.484053E+01
   0.150000E+04   0.898969E-05   0.309785E-04   0.377781E+00   0.484053E+01
   0.151000E+04   0.908816E-05   0.314491E-04   0.377788E+00   0.484053E+01
   0.152000E+04   0.919140E-05   0.319360E-04   0.377795E+00   0.484053E+01
   0.153000E+04   0.929963E-05   0.324397E-04   0.377803E+00   0.484053E+01
   0.154000E+04   0.941302E-05   0.329604E-04   0.377810E+00   0.484053E+01
   0.155000E+04   0.953166E-05   0.334983E-04   0.377817E+00   0.484053E+01
   0.156000E+04   0.965562E-05   0.340533E-04   0.377824E+00   0.484053E+01
   0.157000E+04   0.978491E-05   0.346252E-04   0.377831E+00   0.484053E+01
   0.158000E+04   0.991949E-05   0.352136E-04   0.377837E+00   0.484053E+01
   0.159000E+04   0.100593E-04   0.358181E-04   0.377844E+00   0.484053E+01
   0.160000E+04   0.102042E-04   0.364380E-04   0.377851E+00   0.484053E+01
   0.161000E+04   0.103540E-04   0.370728E-04   0.377858E+00   0.484053E+01
   0.162000E+04   0.105086E-04   0.377217E-04   0.377864E+00   0.484053E+01
   0.163000E+04   0.106678E-04   0.383838E-04   0.377870E+00   0.484053E+01
   0.164000E+04   0.108314E-04   0.390583E-04   0.377877E+00   0.484053E+01
   0.165000E+04   0.109989E-04   0.397440E-04   0.377885E+00   0.484053E+01
   0.166000E+04   0.111703E-04   0.404402E-04   0.377890E+00   0.484053E+01
   0.167000E+04   0.113452E-04   0.411457E-04   0.377894E+00   0.484053E+01
   0.168000E+04   0.115233E-04   0.418593E-04   0.377902E+00   0.484053E+01
   0.169000E+04   0.117041E-04   0.425798E-04   0.377911E+00   0.484053E+01
   0.170000E+04   0.118871E-04   0.433050E-04   0.377926E+00   0.484053E+01
   0.171000E+04   0.120723E-04   0.440348E-04   0.377928E+00   0.484053E+01
   0.172000E+04   0.122593E-04   0.447681E-04   0.377925E+00   0.484053E+01
   0.173000E+04   0.124473E-04   0.455025E-04   0.377936E+00   0.484053E+01
   0.174000E+04   0.126360E-04   0.462363E-04   0.377953E+00   0.484053E+01
   0.175000E+04   0.128250E-04   0.469684E-04   0.377971E+00   0.484053E+01
   0.176000E+04   0.130142E-04   0.476983E-04   0.377977E+00   0.484053E+01
   0.177000E+04   0.132033E-04   0.484254E-04   0.377975E+00   0.484053E+01
   0.178000E+04   0.133920E-04   0.491484E-04   0.377975E+00   0.484053E+01
   0.179000E+04   0.135799E-04   0.498659E-04   0.377983E+00   0.484053E+01
   0.180000E+04   0.137665E-04   0.505764E-04   0.377996E+00   0.484053E+01
   0.181000E+04   0.139518E-04   0.512792E-04   0.378010E+00   0.484053E+01
   0.182000E+04   0.141355E-04   0.519738E-04   0.378017E+00   0.484053E+01
   0.183000E+04   0.143175E-04   0.526601E-04   0.378015E+00   0.484053E+01
   0.184000E+04   0.144977E-04   0.533371E-04   0.378014E+00   0.484053E+01
   0.185000E+04   0.146756E-04   0.540035E-04   0.378020E+00   0.484053E+01
   0.186000E+04   0.148511E-04   0.546584E-04   0.378030E+00   0.484053E+01
   0.187000E+04   0.150238E-04   0.553007E-04   0.378043E+00   0.484053E+01
   0.188000E+04   0.151938E-04   0.559303E-04   0.378050E+00   0.484053E+01
   0.189000E+04   0.153611E-04   0.565472E-04   0.378048E+00   0.484053E+01
   0.190000E+04   0.155256E-04   0.571509E-04   0.378044E+00   0.484053E+01
   0.191000E+04   0.156870E-04   0.577402E-04   0.378049E+00   0.484053E+01
   0.192000E+04   0.158453E-04   0.583142E-04   0.378059E+00   0.484053E+01
   0.193000E+04   0.160002E-04   0.588723E-04   0.378071E+00   0.484053E+01
   0.194000E+04   0.161520E-04   0.594148E-04   0.378079E+00   0.484053E+01
   0.195000E+04   0.163009E-04   0.599422E-04   0.378076E+00   0.484053E+01
   0.196000E+04   0.164471E-04   0.604547E-04   0.378072E+00   0.484053E+01
   0.197000E+04   0.165907E-04   0.609518E-04   0.378076E+00   0.484053E+01
   0.198000E+04   0.167316E-04   0.614334E-04   0.378084E+00   0.484053E+01
   0.199000E+04   0.168701E-04   0.618999E-04   0.378096E+00   0.484053E+01
   0.200000E+04   0.170066E-04   0.623524E-04   0.378103E+00   0.484053E+01
   0.201000E+04   0.171416E-04   0.627926E-04   0.378100E+00   0.484053E+01
   0.202000E+04   0.172755E-04   0.632214E-04   0.378096E+00   0.484053E+01
   0.203000E+04   0.174084E-04   0.636394E-04   0.378099E+00   0.484053E+01
   0.204000E+04   0.175406E-04   0.640473E-04   0.378108E+00   0.484053E+01
   0.205000E+04   0.176722E-04   0.644459E-04   0.378118E+00   0.484053E+01
   0.206000E+04   0.178038E-04   0.648371E-04   0.378125E+00   0.484053E+01
   0.207000E+04   0.179357E-04   0.652227E-04   0.378121E+00   0.484053E+01
   0.208000E+04   0.180683E-04   0.656041E-04   0.378116E+00   0.484053E+01
   0.209000E+04   0.182016E-04   0.659815E-04   0.378119E+00   0.484053E+01
   0.210000E+04   0.183356E-04   0.663554E-04   0.378128E+00   0.484053E+01
   0.211000E+04   0.184704E-04   0.667266E-04   0.378139E+00   0.484053E+01
   0.212000E+04   0.186063E-04   0.670963E-04   0.378144E+00   0.484053E+01
   0.213000E+04   0.187436E-04   0.674659E-04   0.378140E+00   0.484053E+01
   0.214000E+04   0.188823E-04   0.678362E-04   0.378135E+00   0.484053E+01
   0.215000E+04   0.190222E-04   0.682067E-04   0.378138E+00   0.484053E+01
   0.216000E+04   0.191632E-04   0.685772E-04   0.378146E+00   0.484053E+01
   0.217000E+04   0.193052E-04   0.689477E-04   0.378157E+00   0.484053E+01
   0.218000E+04   0.194483E-04   0.693188E-04   0.378162E+00   0.484053E+01
   0.219000E+04   0.195927E-04   0.696916E-04   0.378157E+00   0.484053E+01
   0.220000E+04   0.197382E-04   0.700657E-04   0.378153E+00   0.484053E+01
   0.221000E+04   0.198846E-04   0.704406E-04   0.378156E+00   0.484053E+01
   0.222000E+04   0.200316E-04   0.708154E-04   0.378164E+00   0.484053E+01
   0.223000E+04   0.201791E-04   0.711899E-04   0.378174E+00   0.484053E+01
   0.224000E+04   0.203272E-04   0.715645E-04   0.378178E+00   0.484053E+01
   0.225000E+04   0.204760E-04   0.719399E-04   0.378172E+00   0.484053E+01
   0.226000E+04   0.206254E-04   0.723158E-04   0.378168E+00   0.484053E+01
   0.227000E+04   0.207750E-04   0.726914E-04   0.378171E+00   0.484053E+01
   0.228000E+04   0.209248E-04   0.730661E-04   0.378180E+00   0.484053E+01
   0.229000E+04   0.210746E-04   0.734397E-04   0.378190E+00   0.484053E+01
   0.230000E+04   0.212246E-04   0.738128E-04   0.378193E+00   0.484053E+01
   0.231000E+04   0.213749E-04   0.741863E-04   0.378187E+00   0.484053E+01
   0.232000E+04   0.215256E-04   0.745603E-04   0.378183E+00   0.484053E+01
   0.233000E+04   0.216763E-04   0.749340E-04   0.378185E+00   0.484053E+01
   0.234000E+04   0.218271E-04   0.753072E-04   0.378193E+00   0.484053E+01
   0.235000E+04   0.219779E-04   0.756798E-04   0.378203E+00   0.484053E+01
   0.236000E+04   0.221290E-04   0.760529E-04   0.378207E+00   0.484053E+01
   0.237000E+04   0.222806E-04   0.764275E-04   0.378201E+00   0.484053E+01
   0.238000E+04   0.224328E-04   0.768037E-04   0.378196E+00   0.484053E+01
   0.239000E+04   0.225852E-04   0.771804E-04   0.378208E+00   0.484053E+01
   0.240000E+04   0.227384E-04   0.775598E-04   0.378206E+00   0.484053E+01
   0.241000E+04   0.228924E-04   0.779419E-04   0.378204E+00   0.484053E+01
   0.242000E+04   0.230472E-04   0.783265E-04   0.378207E+00   0.484053E+01
   0.243000E+04   0.232029E-04   0.787139E-04   0.378212E+00   0.484053E+01
   0.244000E+04   0.233596E-04   0.791047E-04   0.378214E+00   0.484053E+01
   0.245000E+04   0.235176E-04   0.794997E-04   0.378210E+00   0.484053E+01
   0.246000E+04   0.236768E-04   0.798987E-04   0.378210E+00   0.484053E+01
   0.247000E+04   0.238372E-04   0.803015E-04   0.378214E+00   0.484053E+01
   0.248000E+04   0.239989E-04   0.807082E-04   0.378218E+00   0.484053E+01
   0.249000E+04   0.241620E-04   0.811197E-04   0.378216E+00   0.484053E+01
   0.250000E+04   0.243266E-04   0.815360E-04   0.378213E+00   0.484053E+01
   0.251000E+04   0.244927E-04   0.819567E-04   0.378216E+00   0.484053E+01
   0.252000E+04   0.246601E-04   0.823814E-04   0.378222E+00   0.484053E+01
   0.253000E+04   0.248291E-04   0.828108E-04   0.378223E+00   0.484053E+01
   0.254000E+04   0.249995E-04   0.832441E-04   0.378225E+00   0.484053E+01
   0.255000E+04   0.251715E-04   0.836819E-04   0.378226E+00   0.484053E+01
   0.256000E+04   0.253453E-04   0.841250E-04   0.378218E+00   0.484053E+01
   0.257000E+04   0.255207E-04   0.845724E-04   0.378219E+00   0.484053E+01
   0.258000E+04   0.256976E-04   0.850235E-04   0.378227E+00   0.484053E+01
   0.259000E+04   0.258759E-04   0.854777E-04   0.378240E+00   0.484053E+01
   0.260000E+04   0.260558E-04   0.859359E-04   0.378247E+00   0.484053E+01
   0.261000E+04   0.262378E-04   0.863995E-04   0.378242E+00   0.484053E+01
   0.262000E+04   0.264218E-04   0.868688E-04   0.378236E+00   0.484053E+01
   0.263000E+04   0.266078E-04   0.873429E-04   0.378237E+00   0.484053E+01
   0.264000E+04   0.267956E-04   0.878213E-04   0.378244E+00   0.484053E+01
   0.265000E+04   0.269852E-04   0.883039E-04   0.378254E+00   0.484053E+01
   0.266000E+04   0.271768E-04   0.887911E-04   0.378260E+00   0.484053E+01
   0.267000E+04   0.273706E-04   0.892843E-04   0.378256E+00   0.484053E+01
   0.268000E+04   0.275667E-04   0.897837E-04   0.378249E+00   0.484053E+01
   0.269000E+04   0.277651E-04   0.902885E-04   0.378250E+00   0.484053E+01
   0.270000E+04   0.279654E-04   0.907981E-04   0.378256E+00   0.484053E+01
   0.271000E+04   0.281675E-04   0.913120E-04   0.378266E+00   0.484053E+01
   0.272000E+04   0.283718E-04   0.918309E-04   0.378271E+00   0.484053E+01
   0.273000E+04   0.285784E-04   0.923560E-04   0.378265E+00   0.484053E+01
   0.274000E+04   0.287873E-04   0.928873E-04   0.378258E+00   0.484053E+01
   0.275000E+04   0.289984E-04   0.934238E-04   0.378259E+00   0.484053E+01
   0.276000E+04   0.292114E-04   0.939648E-04   0.378265E+00   0.484053E+01
   0.277000E+04   0.294261E-04   0.945099E-04   0.378275E+00   0.484053E+01
   0.278000E+04   0.296428E-04   0.950597E-04   0.378279E+00   0.484053E+01
   0.279000E+04   0.298618E-04   0.956152E-04   0.378273E+00   0.484053E+01
   0.280000E+04   0.300830E-04   0.961763E-04   0.378267E+00   0.484053E+01
   0.281000E+04   0.303060E-04   0.967422E-04   0.378268E+00   0.484053E+01
   0.282000E+04   0.305308E-04   0.973118E-04   0.378275E+00   0.484053E+01
   0.283000E+04   0.307572E-04   0.978850E-04   0.378284E+00   0.484053E+01
   0.284000E+04   0.309854E-04   0.984623E-04   0.378286E+00   0.484053E+01
   0.285000E+04   0.312156E-04   0.990448E-04   0.378280E+00   0.484053E+01
   0.286000E+04   0.314478E-04   0.996321E-04   0.378274E+00   0.484053E+01
   0.287000E+04   0.316816E-04   0.100223E-03   0.378276E+00   0.484053E+01
   0.288000E+04   0.319168E-04   0.100817E-03   0.378284E+00   0.484053E+01
   0.289000E+04   0.321534E-04   0.101414E-03   0.378292E+00   0.484053E+01
   0.290000E+04   0.323916E-04   0.102014E-03   0.378294E+00   0.484053E+01
   0.291000E+04   0.326316E-04   0.102619E-03   0.378286E+00   0.484053E+01
   0.292000E+04   0.328732E-04   0.103228E-03   0.378281E+00   0.484053E+01
   0.293000E+04   0.331159E-04   0.103839E-03   0.378293E+00   0.484053E+01
   0.294000E+04   0.333603E-04   0.104453E-03   0.378290E+00   0.484053E+01
   0.295000E+04   0.336061E-04   0.105072E-03   0.378287E+00   0.484053E+01
   0.296000E+04   0.338533E-04   0.105693E-03   0.378290E+00   0.484053E+01
   0.297000E+04   0.341017E-04   0.106317E-03   0.378294E+00   0.484053E+01
   0.298000E+04   0.343514E-04   0.106944E-03   0.378294E+00   0.484053E+01
   0.299000E+04   0.346025E-04   0.107574E-03   0.378290E+00   0.484053E+01
   0.300000E+04   0.348548E-04   0.108207E-03   0.378289E+00   0.484053E+01
   0.301000E+04   0.351080E-04   0.108842E-03   0.378293E+00   0.484053E+01
   0.302000E+04   0.353622E-04   0.109479E-03   0.378295E+00   0.484053E+01
   0.303000E+04   0.356175E-04   0.110119E-03   0.378292E+00   0.484053E+01
   0.304000E+04   0.358738E-04   0.110761E-03   0.378288E+00   0.484053E+01
   0.305000E+04   0.361308E-04   0.111404E-03   0.378291E+00   0.484053E+01
   0.306000E+04   0.363883E-04   0.112048E-03   0.378297E+00   0.484053E+01
   0.307000E+04   0.366464E-04   0.112692E-03   0.378299E+00   0.484053E+01
   0.308000E+04   0.369053E-04   0.113338E-03   0.378293E+00   0.484053E+01
   0.309000E+04   0.371649E-04   0.113985E-03   0.378287E+00   0.484053E+01
   0.310000E+04   0.374249E-04   0.114632E-03   0.378291E+00   0.484053E+01
   0.311000E+04   0.376849E-04   0.115277E-03   0.378301E+00   0.484053E+01
   0.312000E+04   0.379449E-04   0.115921E-03   0.378313E+00   0.484053E+01
   0.313000E+04   0.382054E-04   0.116565E-03   0.378314E+00   0.484053E+01
   0.314000E+04   0.384666E-04   0.117210E-03   0.378305E+00   0.484053E+01
   0.315000E+04   0.387283E-04   0.117856E-03   0.378301E+00   0.484053E+01
   0.316000E+04   0.389898E-04   0.118499E-03   0.378315E+00   0.484053E+01
   0.317000E+04   0.392521E-04   0.119143E-03   0.378311E+00   0.484053E+01
   0.318000E+04   0.395148E-04   0.119788E-03   0.378310E+00   0.484053E+01
   0.319000E+04   0.397777E-04   0.120433E-03   0.378313E+00   0.484053E+01
   0.320000E+04   0.400408E-04   0.121077E-03   0.378318E+00   0.484053E+01
   0.321000E+04   0.403043E-04   0.121721E-03   0.378318E+00   0.484053E+01
   0.322000E+04   0.405683E-04   0.122366E-03   0.378313E+00   0.484053E+01
   0.323000E+04   0.408325E-04   0.123011E-03   0.378312E+00   0.484053E+01
   0.324000E+04   0.410967E-04   0.123655E-03   0.378317E+00   0.484053E+01
   0.325000E+04   0.413610E-04   0.124299E-03   0.378320E+00   0.484053E+01
   0.326000E+04   0.416255E-04   0.124943E-03   0.378315E+00   0.484053E+01
   0.327000E+04   0.418902E-04   0.125587E-03   0.378312E+00   0.484053E+01
   0.328000E+04   0.421547E-04   0.126230E-03   0.378315E+00   0.484053E+01
   0.329000E+04   0.424189E-04   0.126871E-03   0.378321E+00   0.484053E+01
   0.330000E+04   0.426827E-04   0.127511E-03   0.378324E+00   0.484053E+01
   0.331000E+04   0.429467E-04   0.128150E-03   0.378317E+00   0.484053E+01
   0.332000E+04   0.432106E-04   0.128788E-03   0.378310E+00   0.484053E+01
   0.333000E+04   0.434740E-04   0.129424E-03   0.378315E+00   0.484053E+01
   0.334000E+04   0.437367E-04   0.130057E-03   0.378326E+00   0.484053E+01
   0.335000E+04   0.439986E-04   0.130686E-03   0.378337E+00   0.484053E+01
   0.336000E+04   0.442602E-04   0.131313E-03   0.378337E+00   0.484053E+01
   0.337000E+04   0.445219E-04   0.131940E-03   0.378328E+00   0.484053E+01
   0.338000E+04   0.447833E-04   0.132565E-03   0.378325E+00   0.484053E+01
   0.339000E+04   0.450442E-04   0.133188E-03   0.378329E+00   0.484053E+01
   0.340000E+04   0.453044E-04   0.133807E-03   0.378338E+00   0.484053E+01
   0.341000E+04   0.455638E-04   0.134423E-03   0.378346E+00   0.484053E+01
   0.342000E+04   0.458230E-04   0.135037E-03   0.378345E+00   0.484053E+01
   0.343000E+04   0.460821E-04   0.135651E-03   0.378336E+00   0.484053E+01
   0.344000E+04   0.463409E-04   0.136263E-03   0.378333E+00   0.484053E+01
   0.345000E+04   0.465991E-04   0.136872E-03   0.378338E+00   0.484053E+01
   0.346000E+04   0.468564E-04   0.137478E-03   0.378347E+00   0.484053E+01
   0.347000E+04   0.471130E-04   0.138081E-03   0.378354E+00   0.484053E+01
   0.348000E+04   0.473691E-04   0.138681E-03   0.378352E+00   0.484053E+01
   0.349000E+04   0.476252E-04   0.139282E-03   0.378342E+00   0.484053E+01
   0.350000E+04   0.478809E-04   0.139880E-03   0.378340E+00   0.484053E+01
   0.351000E+04   0.481357E-04   0.140475E-03   0.378344E+00   0.484053E+01
   0.352000E+04   0.483896E-04   0.141066E-03   0.378353E+00   0.484053E+01
   0.353000E+04   0.486426E-04   0.141654E-03   0.378360E+00   0.484053E+01
   0.354000E+04   0.488951E-04   0.142240E-03   0.378357E+00   0.484053E+01
   0.355000E+04   0.491474E-04   0.142825E-03   0.378348E+00   0.484053E+01
   0.356000E+04   0.493990E-04   0.143407E-03   0.378346E+00   0.484053E+01
   0.357000E+04   0.496498E-04   0.143986E-03   0.378351E+00   0.484053E+01
   0.358000E+04   0.498995E-04   0.144561E-03   0.378360E+00   0.484053E+01
   0.359000E+04   0.501482E-04   0.145133E-03   0.378364E+00   0.484053E+01
   0.360000E+04   0.503965E-04   0.145702E-03   0.378359E+00   0.484053E+01
   0.361000E+04   0.506443E-04   0.146270E-03   0.378351E+00   0.484053E+01
   0.362000E+04   0.508915E-04   0.146835E-03   0.378351E+00   0.484053E+01
   0.363000E+04   0.511375E-04   0.147396E-03   0.378356E+00   0.484053E+01
   0.364000E+04   0.513825E-04   0.147953E-03   0.378365E+00   0.484053E+01
   0.365000E+04   0.516264E-04   0.148506E-03   0.378369E+00   0.484053E+01
   0.366000E+04   0.518699E-04   0.149058E-03   0.378362E+00   0.484053E+01
   0.367000E+04   0.521129E-04   0.149607E-03   0.378354E+00   0.484053E+01
   0.368000E+04   0.523551E-04   0.150154E-03   0.378354E+00   0.484053E+01
   0.369000E+04   0.525962E-04   0.150696E-03   0.378359E+00   0.484053E+01
   0.370000E+04   0.528361E-04   0.151234E-03   0.378369E+00   0.484053E+01
   0.371000E+04   0.530749E-04   0.151769E-03   0.378372E+00   0.484053E+01
   0.372000E+04   0.533133E-04   0.152301E-03   0.378365E+00   0.484053E+01
   0.373000E+04   0.535513E-04   0.152832E-03   0.378358E+00   0.484053E+01
   0.374000E+04   0.537883E-04   0.153359E-03   0.378358E+00   0.484053E+01
   0.375000E+04   0.540243E-04   0.153882E-03   0.378363E+00   0.484053E+01
   0.376000E+04   0.542590E-04   0.154401E-03   0.378372E+00   0.484053E+01
   0.377000E+04   0.544928E-04   0.154917E-03   0.378375E+00   0.484053E+01
   0.378000E+04   0.547261E-04   0.155431E-03   0.378367E+00   0.484053E+01
   0.379000E+04   0.549590E-04   0.155942E-03   0.378361E+00   0.484053E+01
   0.380000E+04   0.551909E-04   0.156451E-03   0.378361E+00   0.484053E+01
   0.381000E+04   0.554218E-04   0.156956E-03   0.378368E+00   0.484053E+01
   0.382000E+04   0.556514E-04   0.157456E-03   0.378376E+00   0.484053E+01
   0.383000E+04   0.558803E-04   0.157953E-03   0.378377E+00   0.484053E+01
   0.384000E+04   0.561087E-04   0.158449E-03   0.378369E+00   0.484053E+01
   0.385000E+04   0.563367E-04   0.158943E-03   0.378363E+00   0.484053E+01
   0.386000E+04   0.565638E-04   0.159435E-03   0.378364E+00   0.484053E+01
   0.387000E+04   0.567898E-04   0.159922E-03   0.378370E+00   0.484053E+01
   0.388000E+04   0.570147E-04   0.160405E-03   0.378379E+00   0.484053E+01
   0.389000E+04   0.572388E-04   0.160886E-03   0.378381E+00   0.484053E+01
   0.390000E+04   0.574625E-04   0.161365E-03   0.378372E+00   0.484053E+01
   0.391000E+04   0.576859E-04   0.161843E-03   0.378366E+00   0.484053E+01
   0.392000E+04   0.579085E-04   0.162318E-03   0.378366E+00   0.484053E+01
   0.393000E+04   0.581300E-04   0.162790E-03   0.378373E+00   0.484053E+01