title="breakthrough data set at     5 wells"
variables="time(days)","cavg","cpk","upk","zswi"
zone i=     1295
   0.100000E+02   0.196382E-09   0.300622E-09   0.460371E+00   0.486489E+01
   0.200000E+02   0.661299E-09   0.101638E-08   0.392341E+00   0.483978E+01
   0.300000E+02   0.166513E-08   0.255308E-08   0.392055E+00   0.483978E+01
   0.400000E+02   0.359612E-08   0.549236E-08   0.392007E+00   0.483978E+01
   0.500000E+02   0.699596E-08   0.106366E-07   0.391966E+00   0.483978E+01
   0.600000E+02   0.125738E-07   0.190224E-07   0.391921E+00   0.483978E+01
   0.700000E+02   0.212060E-07   0.319108E-07   0.391877E+00   0.483978E+01
   0.800000E+02   0.339250E-07   0.507612E-07   0.391836E+00   0.483978E+01
   0.900000E+02   0.518944E-07   0.771846E-07   0.391806E+00   0.483978E+01
   0.100000E+03   0.763914E-07   0.112914E-06   0.391799E+00   0.483978E+01
   0.110000E+03   0.108759E-06   0.159715E-06   0.391741E+00   0.483978E+01
   0.120000E+03   0.150364E-06   0.219336E-06   0.391713E+00   0.483978E+01
   0.130000E+03   0.202578E-06   0.293478E-06   0.391708E+00   0.483978E+01
   0.140000E+03   0.266723E-06   0.383699E-06   0.391690E+00   0.483978E+01
   0.150000E+03   0.344048E-06   0.491403E-06   0.391671E+00   0.483978E+01
   0.160000E+03   0.435693E-06   0.617787E-06   0.391655E+00   0.483978E+01
   0.170000E+03   0.542635E-06   0.763757E-06   0.391633E+00   0.483978E+01
   0.180000E+03   0.665715E-06   0.930010E-06   0.391625E+00   0.483978E+01
   0.190000E+03   0.805599E-06   0.111696E-05   0.391621E+00   0.483978E+01
   0.200000E+03   0.962844E-06   0.132487E-05   0.391619E+00   0.483978E+01
   0.210000E+03   0.113776E-05   0.155361E-05   0.391619E+00   0.483978E+01
   0.220000E+03   0.133052E-05   0.180288E-05   0.391620E+00   0.483978E+01
   0.230000E+03   0.154113E-05   0.207216E-05   0.391622E+00   0.483978E+01
   0.240000E+03   0.176944E-05   0.236074E-05   0.391625E+00   0.483978E+01
   0.250000E+03   0.201515E-05   0.266772E-05   0.391630E+00   0.483978E+01
   0.260000E+03   0.227780E-05   0.299201E-05   0.391637E+00   0.483978E+01
   0.270000E+03   0.255684E-05   0.333243E-05   0.391645E+00   0.483978E+01
   0.280000E+03   0.285157E-05   0.368765E-05   0.391654E+00   0.483978E+01
   0.290000E+03   0.316119E-05   0.405623E-05   0.391664E+00   0.483978E+01
   0.300000E+03   0.348482E-05   0.443667E-05   0.391675E+00   0.483978E+01
   0.310000E+03   0.382149E-05   0.482740E-05   0.391687E+00   0.483978E+01
   0.320000E+03   0.417016E-05   0.522678E-05   0.391700E+00   0.483978E+01
   0.330000E+03   0.452975E-05   0.563316E-05   0.391714E+00   0.483978E+01
   0.340000E+03   0.489910E-05   0.604486E-05   0.391728E+00   0.483978E+01
   0.350000E+03   0.527701E-05   0.649718E-05   0.391743E+00   0.483978E+01
   0.360000E+03   0.566227E-05   0.697176E-05   0.391759E+00   0.483978E+01
   0.370000E+03   0.605363E-05   0.745174E-05   0.391775E+00   0.483978E+01
   0.380000E+03   0.644982E-05   0.793517E-05   0.391792E+00   0.483978E+01
   0.390000E+03   0.684956E-05   0.842012E-05   0.391809E+00   0.483978E+01
   0.400000E+03   0.725159E-05   0.891541E-05   0.391827E+00   0.483978E+01
   0.410000E+03   0.765466E-05   0.952418E-05   0.391845E+00   0.483978E+01
   0.420000E+03   0.805753E-05   0.101435E-04   0.391863E+00   0.483978E+01
   0.430000E+03   0.845900E-05   0.107717E-04   0.391881E+00   0.483978E+01
   0.440000E+03   0.885790E-05   0.114074E-04   0.391899E+00   0.483978E+01
   0.450000E+03   0.925310E-05   0.120489E-04   0.391918E+00   0.483978E+01
   0.460000E+03   0.964352E-05   0.126948E-04   0.391937E+00   0.483978E+01
   0.470000E+03   0.100281E-04   0.133437E-04   0.391955E+00   0.483978E+01
   0.480000E+03   0.104060E-04   0.139942E-04   0.391974E+00   0.483978E+01
   0.490000E+03   0.107761E-04   0.146451E-04   0.391993E+00   0.483978E+01
   0.500000E+03   0.111377E-04   0.152950E-04   0.392013E+00   0.483978E+01
   0.510000E+03   0.114899E-04   0.159430E-04   0.392032E+00   0.483978E+01
   0.520000E+03   0.118322E-04   0.165880E-04   0.392051E+00   0.483978E+01
   0.530000E+03   0.121638E-04   0.172292E-04   0.392070E+00   0.483978E+01
   0.540000E+03   0.124842E-04   0.178659E-04   0.392090E+00   0.483978E+01
   0.550000E+03   0.127930E-04   0.184974E-04   0.392109E+00   0.483978E+01
   0.560000E+03   0.130897E-04   0.191233E-04   0.392128E+00   0.483978E+01
   0.570000E+03   0.133740E-04   0.197432E-04   0.392148E+00   0.483978E+01
   0.580000E+03   0.136458E-04   0.203568E-04   0.392167E+00   0.483978E+01
   0.590000E+03   0.139047E-04   0.209639E-04   0.392186E+00   0.483978E+01
   0.600000E+03   0.141508E-04   0.215644E-04   0.392205E+00   0.483978E+01
   0.610000E+03   0.143838E-04   0.221582E-04   0.392224E+00   0.483978E+01
   0.620000E+03   0.146038E-04   0.227452E-04   0.392243E+00   0.483978E+01
   0.630000E+03   0.148107E-04   0.233252E-04   0.392262E+00   0.483978E+01
   0.640000E+03   0.150045E-04   0.238982E-04   0.392281E+00   0.483978E+01
   0.650000E+03   0.151853E-04   0.244639E-04   0.392300E+00   0.483978E+01
   0.660000E+03   0.153532E-04   0.250220E-04   0.392318E+00   0.483978E+01
   0.670000E+03   0.155081E-04   0.255724E-04   0.392336E+00   0.483978E+01
   0.680000E+03   0.156503E-04   0.261145E-04   0.392354E+00   0.483978E+01
   0.690000E+03   0.157798E-04   0.266479E-04   0.392372E+00   0.483978E+01
   0.700000E+03   0.158967E-04   0.271722E-04   0.392390E+00   0.483978E+01
   0.710000E+03   0.160013E-04   0.276869E-04   0.392408E+00   0.483978E+01
   0.720000E+03   0.160937E-04   0.281914E-04   0.392425E+00   0.483978E+01
   0.730000E+03   0.161743E-04   0.286853E-04   0.392443E+00   0.483978E+01
   0.740000E+03   0.162432E-04   0.291681E-04   0.392460E+00   0.483978E+01
   0.750000E+03   0.163009E-04   0.296393E-04   0.392477E+00   0.483978E+01
   0.760000E+03   0.163477E-04   0.300986E-04   0.392494E+00   0.483978E+01
   0.770000E+03   0.163841E-04   0.305457E-04   0.392511E+00   0.483978E+01
   0.780000E+03   0.164107E-04   0.309806E-04   0.392528E+00   0.483978E+01
   0.790000E+03   0.164280E-04   0.314033E-04   0.392544E+00   0.483978E+01
   0.800000E+03   0.164366E-04   0.318138E-04   0.392560E+00   0.483978E+01
   0.810000E+03   0.164373E-04   0.322126E-04   0.392577E+00   0.483978E+01
   0.820000E+03   0.164308E-04   0.326001E-04   0.392593E+00   0.483978E+01
   0.830000E+03   0.164179E-04   0.329768E-04   0.392609E+00   0.483978E+01
   0.840000E+03   0.163993E-04   0.333436E-04   0.392624E+00   0.483978E+01
   0.850000E+03   0.163760E-04   0.337014E-04   0.392640E+00   0.483978E+01
   0.860000E+03   0.163489E-04   0.340513E-04   0.392655E+00   0.483978E+01
   0.870000E+03   0.163188E-04   0.343943E-04   0.392670E+00   0.483978E+01
   0.880000E+03   0.162867E-04   0.347318E-04   0.392685E+00   0.483978E+01
   0.890000E+03   0.162534E-04   0.350651E-04   0.392700E+00   0.483978E+01
   0.900000E+03   0.162198E-04   0.353956E-04   0.392715E+00   0.483978E+01
   0.910000E+03   0.161869E-04   0.357246E-04   0.392729E+00   0.483978E+01
   0.920000E+03   0.161556E-04   0.360538E-04   0.392743E+00   0.483978E+01
   0.930000E+03   0.161266E-04   0.363844E-04   0.392758E+00   0.483978E+01
   0.940000E+03   0.161008E-04   0.367181E-04   0.392772E+00   0.483978E+01
   0.950000E+03   0.160789E-04   0.370561E-04   0.392786E+00   0.483978E+01
   0.960000E+03   0.160617E-04   0.373999E-04   0.392799E+00   0.483978E+01
   0.970000E+03   0.160499E-04   0.377508E-04   0.392813E+00   0.483978E+01
   0.980000E+03   0.160441E-04   0.381100E-04   0.392826E+00   0.483978E+01
   0.990000E+03   0.160450E-04   0.384787E-04   0.392840E+00   0.483978E+01
   0.100000E+04   0.160530E-04   0.388579E-04   0.392853E+00   0.483978E+01
   0.101000E+04   0.160687E-04   0.392487E-04   0.392866E+00   0.483978E+01
   0.102000E+04   0.160925E-04   0.396520E-04   0.392879E+00   0.483978E+01
   0.103000E+04   0.161248E-04   0.400685E-04   0.392892E+00   0.483978E+01
   0.104000E+04   0.161660E-04   0.404990E-04   0.392904E+00   0.483978E+01
   0.105000E+04   0.162164E-04   0.409440E-04   0.392917E+00   0.483978E+01
   0.106000E+04   0.162763E-04   0.414041E-04   0.392929E+00   0.483978E+01
   0.107000E+04   0.163459E-04   0.418798E-04   0.392941E+00   0.483978E+01
   0.108000E+04   0.164253E-04   0.423714E-04   0.392953E+00   0.483978E+01
   0.109000E+04   0.165149E-04   0.428791E-04   0.392965E+00   0.483978E+01
   0.110000E+04   0.166146E-04   0.434033E-04   0.392977E+00   0.483978E+01
   0.111000E+04   0.167247E-04   0.439440E-04   0.392989E+00   0.483978E+01
   0.112000E+04   0.168451E-04   0.445014E-04   0.393000E+00   0.483978E+01
   0.113000E+04   0.169759E-04   0.450754E-04   0.393012E+00   0.483978E+01
   0.114000E+04   0.171173E-04   0.456662E-04   0.393023E+00   0.483978E+01
   0.115000E+04   0.172691E-04   0.462736E-04   0.393034E+00   0.483978E+01
   0.116000E+04   0.174313E-04   0.468975E-04   0.393045E+00   0.483978E+01
   0.117000E+04   0.176040E-04   0.475379E-04   0.393056E+00   0.483978E+01
   0.118000E+04   0.177871E-04   0.481946E-04   0.393067E+00   0.483978E+01
   0.119000E+04   0.179806E-04   0.488674E-04   0.393077E+00   0.483978E+01
   0.120000E+04   0.181842E-04   0.495561E-04   0.393088E+00   0.483978E+01
   0.121000E+04   0.183981E-04   0.502605E-04   0.393099E+00   0.483978E+01
   0.122000E+04   0.186221E-04   0.509806E-04   0.393108E+00   0.483978E+01
   0.123000E+04   0.188559E-04   0.517158E-04   0.393120E+00   0.483978E+01
   0.124000E+04   0.190994E-04   0.524657E-04   0.393133E+00   0.483978E+01
   0.125000E+04   0.193508E-04   0.532241E-04   0.393159E+00   0.483978E+01
   0.126000E+04   0.196122E-04   0.539979E-04   0.393163E+00   0.483978E+01
   0.127000E+04   0.198807E-04   0.547793E-04   0.393197E+00   0.483978E+01
   0.128000E+04   0.201570E-04   0.555700E-04   0.393221E+00   0.483978E+01
   0.129000E+04   0.204431E-04   0.563763E-04   0.393224E+00   0.483978E+01
   0.130000E+04   0.207392E-04   0.571980E-04   0.393226E+00   0.483978E+01
   0.131000E+04   0.210438E-04   0.580314E-04   0.393240E+00   0.483978E+01
   0.132000E+04   0.213562E-04   0.588753E-04   0.393257E+00   0.483978E+01
   0.133000E+04   0.216781E-04   0.597342E-04   0.393260E+00   0.483978E+01
   0.134000E+04   0.220097E-04   0.606092E-04   0.393261E+00   0.483978E+01
   0.135000E+04   0.223495E-04   0.614963E-04   0.393274E+00   0.483978E+01
   0.136000E+04   0.226968E-04   0.623942E-04   0.393290E+00   0.483978E+01
   0.137000E+04   0.230530E-04   0.633071E-04   0.393291E+00   0.483978E+01
   0.138000E+04   0.234186E-04   0.642367E-04   0.393289E+00   0.483978E+01
   0.139000E+04   0.237923E-04   0.651798E-04   0.393305E+00   0.483978E+01
   0.140000E+04   0.241738E-04   0.661357E-04   0.393327E+00   0.483978E+01
   0.141000E+04   0.245642E-04   0.671082E-04   0.393335E+00   0.483978E+01
   0.142000E+04   0.249637E-04   0.680977E-04   0.393335E+00   0.483978E+01
   0.143000E+04   0.253699E-04   0.690979E-04   0.393341E+00   0.483978E+01
   0.144000E+04   0.257821E-04   0.701076E-04   0.393351E+00   0.483978E+01
   0.145000E+04   0.262024E-04   0.711329E-04   0.393355E+00   0.483978E+01
   0.146000E+04   0.266322E-04   0.721776E-04   0.393361E+00   0.483978E+01
   0.147000E+04   0.270693E-04   0.732362E-04   0.393382E+00   0.483978E+01
   0.148000E+04   0.275125E-04   0.743054E-04   0.393401E+00   0.483978E+01
   0.149000E+04   0.279625E-04   0.753873E-04   0.393404E+00   0.483978E+01
   0.150000E+04   0.284195E-04   0.764831E-04   0.393394E+00   0.483978E+01
   0.151000E+04   0.288818E-04   0.775878E-04   0.393399E+00   0.483978E+01
   0.152000E+04   0.293491E-04   0.787013E-04   0.393413E+00   0.483978E+01
   0.153000E+04   0.298233E-04   0.798286E-04   0.393423E+00   0.483978E+01
   0.154000E+04   0.303051E-04   0.809726E-04   0.393426E+00   0.483978E+01
   0.155000E+04   0.307922E-04   0.821261E-04   0.393440E+00   0.483978E+01
   0.156000E+04   0.312832E-04   0.832857E-04   0.393454E+00   0.483978E+01
   0.157000E+04   0.317786E-04   0.844532E-04   0.393454E+00   0.483978E+01
   0.158000E+04   0.322797E-04   0.856317E-04   0.393442E+00   0.483978E+01
   0.159000E+04   0.327848E-04   0.868175E-04   0.393449E+00   0.483978E+01
   0.160000E+04   0.332938E-04   0.880099E-04   0.393467E+00   0.483978E+01
   0.161000E+04   0.338074E-04   0.892110E-04   0.393481E+00   0.483978E+01
   0.162000E+04   0.343267E-04   0.904239E-04   0.393480E+00   0.483978E+01
   0.163000E+04   0.348493E-04   0.916422E-04   0.393487E+00   0.483978E+01
   0.164000E+04   0.353739E-04   0.928619E-04   0.393494E+00   0.483978E+01
   0.165000E+04   0.359004E-04   0.940831E-04   0.393498E+00   0.483978E+01
   0.166000E+04   0.364309E-04   0.953122E-04   0.393490E+00   0.483978E+01
   0.167000E+04   0.369650E-04   0.965477E-04   0.393497E+00   0.483978E+01
   0.168000E+04   0.375017E-04   0.977867E-04   0.393514E+00   0.483978E+01
   0.169000E+04   0.380400E-04   0.990269E-04   0.393532E+00   0.483978E+01
   0.170000E+04   0.385814E-04   0.100273E-03   0.393530E+00   0.483978E+01
   0.171000E+04   0.391250E-04   0.101521E-03   0.393526E+00   0.483978E+01
   0.172000E+04   0.396690E-04   0.102767E-03   0.393529E+00   0.483978E+01
   0.173000E+04   0.402129E-04   0.104010E-03   0.393539E+00   0.483978E+01
   0.174000E+04   0.407594E-04   0.105257E-03   0.393539E+00   0.483978E+01
   0.175000E+04   0.413091E-04   0.106510E-03   0.393542E+00   0.483978E+01
   0.176000E+04   0.418595E-04   0.107763E-03   0.393556E+00   0.483978E+01
   0.177000E+04   0.424094E-04   0.109011E-03   0.393572E+00   0.483978E+01
   0.178000E+04   0.429601E-04   0.110258E-03   0.393570E+00   0.483978E+01
   0.179000E+04   0.435119E-04   0.111507E-03   0.393558E+00   0.483978E+01
   0.180000E+04   0.440630E-04   0.112750E-03   0.393562E+00   0.483978E+01
   0.181000E+04   0.446131E-04   0.113989E-03   0.393576E+00   0.483978E+01
   0.182000E+04   0.451643E-04   0.115229E-03   0.393585E+00   0.483978E+01
   0.183000E+04   0.457176E-04   0.116472E-03   0.393583E+00   0.483978E+01
   0.184000E+04   0.462704E-04   0.117712E-03   0.393593E+00   0.483978E+01
   0.185000E+04   0.468212E-04   0.118944E-03   0.393603E+00   0.483978E+01
   0.186000E+04   0.473706E-04   0.120171E-03   0.393602E+00   0.483978E+01
   0.187000E+04   0.479205E-04   0.121397E-03   0.393589E+00   0.483978E+01
   0.188000E+04   0.484697E-04   0.122620E-03   0.393593E+00   0.483978E+01
   0.189000E+04   0.490176E-04   0.123838E-03   0.393609E+00   0.483978E+01
   0.190000E+04   0.495645E-04   0.125051E-03   0.393625E+00   0.483978E+01
   0.191000E+04   0.501120E-04   0.126265E-03   0.393622E+00   0.483978E+01
   0.192000E+04   0.506585E-04   0.127475E-03   0.393622E+00   0.483978E+01
   0.193000E+04   0.512022E-04   0.128676E-03   0.393626E+00   0.483978E+01
   0.194000E+04   0.517425E-04   0.129867E-03   0.393632E+00   0.483978E+01
   0.195000E+04   0.522826E-04   0.131056E-03   0.393626E+00   0.483978E+01
   0.196000E+04   0.528229E-04   0.132245E-03   0.393627E+00   0.483978E+01
   0.197000E+04   0.533616E-04   0.133429E-03   0.393641E+00   0.483978E+01
   0.198000E+04   0.538974E-04   0.134605E-03   0.393659E+00   0.483978E+01
   0.199000E+04   0.544321E-04   0.135777E-03   0.393656E+00   0.483978E+01
   0.200000E+04   0.549659E-04   0.136946E-03   0.393646E+00   0.483978E+01
   0.201000E+04   0.554964E-04   0.138106E-03   0.393646E+00   0.483978E+01
   0.202000E+04   0.560232E-04   0.139256E-03   0.393657E+00   0.483978E+01
   0.203000E+04   0.565490E-04   0.140403E-03   0.393660E+00   0.483978E+01
   0.204000E+04   0.570754E-04   0.141551E-03   0.393659E+00   0.483978E+01
   0.205000E+04   0.575995E-04   0.142694E-03   0.393670E+00   0.483978E+01
   0.206000E+04   0.581201E-04   0.143826E-03   0.393683E+00   0.483978E+01
   0.207000E+04   0.586379E-04   0.144952E-03   0.393684E+00   0.483978E+01
   0.208000E+04   0.591547E-04   0.146075E-03   0.393668E+00   0.483978E+01
   0.209000E+04   0.596688E-04   0.147190E-03   0.393668E+00   0.483978E+01
   0.210000E+04   0.601798E-04   0.148298E-03   0.393680E+00   0.483978E+01
   0.211000E+04   0.606888E-04   0.149402E-03   0.393694E+00   0.483978E+01
   0.212000E+04   0.611978E-04   0.150506E-03   0.393691E+00   0.483978E+01
   0.213000E+04   0.617049E-04   0.151605E-03   0.393693E+00   0.483978E+01
   0.214000E+04   0.622082E-04   0.152695E-03   0.393699E+00   0.483978E+01
   0.215000E+04   0.627072E-04   0.153774E-03   0.393705E+00   0.483978E+01
   0.216000E+04   0.632046E-04   0.154849E-03   0.393695E+00   0.483978E+01
   0.217000E+04   0.637010E-04   0.155922E-03   0.393691E+00   0.483978E+01
   0.218000E+04   0.641950E-04   0.156990E-03   0.393705E+00   0.483978E+01
   0.219000E+04   0.646856E-04   0.158051E-03   0.393725E+00   0.483978E+01
   0.220000E+04   0.651750E-04   0.159108E-03   0.393724E+00   0.483978E+01
   0.221000E+04   0.656632E-04   0.160164E-03   0.393715E+00   0.483978E+01
   0.222000E+04   0.661476E-04   0.161211E-03   0.393716E+00   0.483978E+01
   0.223000E+04   0.666274E-04   0.162245E-03   0.393723E+00   0.483978E+01
   0.224000E+04   0.671053E-04   0.163277E-03   0.393721E+00   0.483978E+01
   0.225000E+04   0.675835E-04   0.164311E-03   0.393717E+00   0.483978E+01
   0.226000E+04   0.680595E-04   0.165340E-03   0.393729E+00   0.483978E+01
   0.227000E+04   0.685319E-04   0.166360E-03   0.393745E+00   0.483978E+01
   0.228000E+04   0.690014E-04   0.167374E-03   0.393747E+00   0.483978E+01
   0.229000E+04   0.694699E-04   0.168387E-03   0.393733E+00   0.483978E+01
   0.230000E+04   0.699350E-04   0.169392E-03   0.393731E+00   0.483978E+01
   0.231000E+04   0.703964E-04   0.170388E-03   0.393739E+00   0.483978E+01
   0.232000E+04   0.708552E-04   0.171379E-03   0.393749E+00   0.483978E+01
   0.233000E+04   0.713145E-04   0.172373E-03   0.393748E+00   0.483978E+01
   0.234000E+04   0.717722E-04   0.173364E-03   0.393751E+00   0.483978E+01
   0.235000E+04   0.722263E-04   0.174347E-03   0.393759E+00   0.483978E+01
   0.236000E+04   0.726760E-04   0.175319E-03   0.393767E+00   0.483978E+01
   0.237000E+04   0.731241E-04   0.176288E-03   0.393754E+00   0.483978E+01
   0.238000E+04   0.735706E-04   0.177255E-03   0.393746E+00   0.483978E+01
   0.239000E+04   0.740144E-04   0.178216E-03   0.393755E+00   0.483978E+01
   0.240000E+04   0.744549E-04   0.179170E-03   0.393775E+00   0.483978E+01
   0.241000E+04   0.748945E-04   0.180124E-03   0.393777E+00   0.483978E+01
   0.242000E+04   0.753334E-04   0.181077E-03   0.393771E+00   0.483978E+01
   0.243000E+04   0.757686E-04   0.182021E-03   0.393774E+00   0.483978E+01
   0.244000E+04   0.761989E-04   0.182953E-03   0.393780E+00   0.483978E+01
   0.245000E+04   0.766269E-04   0.183881E-03   0.393775E+00   0.483978E+01
   0.246000E+04   0.770548E-04   0.184811E-03   0.393766E+00   0.483978E+01
   0.247000E+04   0.774809E-04   0.185737E-03   0.393777E+00   0.483978E+01
   0.248000E+04   0.779036E-04   0.186656E-03   0.393794E+00   0.483978E+01
   0.249000E+04   0.783239E-04   0.187570E-03   0.393799E+00   0.483978E+01
   0.250000E+04   0.787435E-04   0.188484E-03   0.393786E+00   0.483978E+01
   0.251000E+04   0.791598E-04   0.189390E-03   0.393783E+00   0.483978E+01
   0.252000E+04   0.795719E-04   0.190286E-03   0.393788E+00   0.483978E+01
   0.253000E+04   0.799809E-04   0.191175E-03   0.393795E+00   0.483978E+01
   0.254000E+04   0.803903E-04   0.192068E-03   0.393792E+00   0.483978E+01
   0.255000E+04   0.807986E-04   0.192959E-03   0.393797E+00   0.483978E+01
   0.256000E+04   0.812038E-04   0.193843E-03   0.393807E+00   0.483978E+01
   0.257000E+04   0.816047E-04   0.194717E-03   0.393818E+00   0.483978E+01
   0.258000E+04   0.820040E-04   0.195588E-03   0.393806E+00   0.483978E+01
   0.259000E+04   0.824017E-04   0.196457E-03   0.393794E+00   0.483978E+01
   0.260000E+04   0.827961E-04   0.197318E-03   0.393798E+00   0.483978E+01
   0.261000E+04   0.831872E-04   0.198171E-03   0.393816E+00   0.483978E+01
   0.262000E+04   0.835778E-04   0.199025E-03   0.393819E+00   0.483978E+01
   0.263000E+04   0.839683E-04   0.199881E-03   0.393814E+00   0.483978E+01
   0.264000E+04   0.843554E-04   0.200729E-03   0.393819E+00   0.483978E+01
   0.265000E+04   0.847378E-04   0.201565E-03   0.393827E+00   0.483978E+01
   0.266000E+04   0.851174E-04   0.202395E-03   0.393820E+00   0.483978E+01
   0.267000E+04   0.854967E-04   0.203225E-03   0.393807E+00   0.483978E+01
   0.268000E+04   0.858738E-04   0.204052E-03   0.393814E+00   0.483978E+01
   0.269000E+04   0.862480E-04   0.204872E-03   0.393832E+00   0.483978E+01
   0.270000E+04   0.866201E-04   0.205688E-03   0.393840E+00   0.483978E+01
   0.271000E+04   0.869920E-04   0.206505E-03   0.393830E+00   0.483978E+01
   0.272000E+04   0.873612E-04   0.207316E-03   0.393827E+00   0.483978E+01
   0.273000E+04   0.877259E-04   0.208116E-03   0.393830E+00   0.483978E+01
   0.274000E+04   0.880870E-04   0.208907E-03   0.393833E+00   0.483978E+01
   0.275000E+04   0.884483E-04   0.209701E-03   0.393826E+00   0.483978E+01
   0.276000E+04   0.888091E-04   0.210495E-03   0.393830E+00   0.483978E+01
   0.277000E+04   0.891671E-04   0.211283E-03   0.393842E+00   0.483978E+01
   0.278000E+04   0.895212E-04   0.212062E-03   0.393856E+00   0.483978E+01
   0.279000E+04   0.898739E-04   0.212838E-03   0.393847E+00   0.483978E+01
   0.280000E+04   0.902251E-04   0.213611E-03   0.393834E+00   0.483978E+01
   0.281000E+04   0.905726E-04   0.214376E-03   0.393835E+00   0.483978E+01
   0.282000E+04   0.909164E-04   0.215132E-03   0.393849E+00   0.483978E+01
   0.283000E+04   0.912598E-04   0.215889E-03   0.393851E+00   0.483978E+01
   0.284000E+04   0.916038E-04   0.216649E-03   0.393847E+00   0.483978E+01
   0.285000E+04   0.919451E-04   0.217402E-03   0.393854E+00   0.483978E+01
   0.286000E+04   0.922818E-04   0.218145E-03   0.393864E+00   0.483978E+01
   0.287000E+04   0.926160E-04   0.218881E-03   0.393858E+00   0.483978E+01
   0.288000E+04   0.929495E-04   0.219617E-03   0.393841E+00   0.483978E+01
   0.289000E+04   0.932805E-04   0.220348E-03   0.393844E+00   0.483978E+01
   0.290000E+04   0.936086E-04   0.221072E-03   0.393859E+00   0.483978E+01
   0.291000E+04   0.939349E-04   0.221793E-03   0.393870E+00   0.483978E+01
   0.292000E+04   0.942616E-04   0.222517E-03   0.393862E+00   0.483978E+01
   0.293000E+04   0.945859E-04   0.223235E-03   0.393862E+00   0.483978E+01
   0.294000E+04   0.949059E-04   0.223942E-03   0.393866E+00   0.483978E+01
   0.295000E+04   0.952219E-04   0.224639E-03   0.393868E+00   0.483978E+01
   0.296000E+04   0.955377E-04   0.225338E-03   0.393856E+00   0.483978E+01
   0.297000E+04   0.958530E-04   0.226036E-03   0.393856E+00   0.483978E+01
   0.298000E+04   0.961660E-04   0.226730E-03   0.393870E+00   0.483978E+01
   0.299000E+04   0.964755E-04   0.227415E-03   0.393886E+00   0.483978E+01
   0.300000E+04   0.967841E-04   0.228100E-03   0.393879E+00   0.483978E+01
   0.301000E+04   0.970915E-04   0.228782E-03   0.393867E+00   0.483978E+01
   0.302000E+04   0.973950E-04   0.229454E-03   0.393866E+00   0.483978E+01
   0.303000E+04   0.976942E-04   0.230115E-03   0.393876E+00   0.483978E+01
   0.304000E+04   0.979927E-04   0.230777E-03   0.393875E+00   0.483978E+01
   0.305000E+04   0.982921E-04   0.231442E-03   0.393872E+00   0.483978E+01
   0.306000E+04   0.985892E-04   0.232103E-03   0.393882E+00   0.483978E+01
   0.307000E+04   0.988823E-04   0.232753E-03   0.393894E+00   0.483978E+01
   0.308000E+04   0.991729E-04   0.233397E-03   0.393891E+00   0.483978E+01
   0.309000E+04   0.994629E-04   0.234041E-03   0.393873E+00   0.483978E+01
   0.310000E+04   0.997501E-04   0.234679E-03   0.393871E+00   0.483978E+01
   0.311000E+04   0.100034E-03   0.235308E-03   0.393882E+00   0.483978E+01
   0.312000E+04   0.100316E-03   0.235935E-03   0.393893E+00   0.483978E+01
   0.313000E+04   0.100599E-03   0.236565E-03   0.393887E+00   0.483978E+01
   0.314000E+04   0.100881E-03   0.237192E-03   0.393889E+00   0.483978E+01
   0.315000E+04   0.101158E-03   0.237808E-03   0.393895E+00   0.483978E+01
   0.316000E+04   0.101431E-03   0.238414E-03   0.393897E+00   0.483978E+01
   0.317000E+04   0.101704E-03   0.239019E-03   0.393884E+00   0.483978E+01
   0.318000E+04   0.101975E-03   0.239623E-03   0.393879E+00   0.483978E+01
   0.319000E+04   0.102245E-03   0.240222E-03   0.393891E+00   0.483978E+01
   0.320000E+04   0.102511E-03   0.240814E-03   0.393910E+00   0.483978E+01
   0.321000E+04   0.102777E-03   0.241406E-03   0.393906E+00   0.483978E+01
   0.322000E+04   0.103042E-03   0.241997E-03   0.393896E+00   0.483978E+01
   0.323000E+04   0.103304E-03   0.242579E-03   0.393895E+00   0.483978E+01
   0.324000E+04   0.103560E-03   0.243148E-03   0.393902E+00   0.483978E+01
   0.325000E+04   0.103816E-03   0.243716E-03   0.393897E+00   0.483978E+01
   0.326000E+04   0.104073E-03   0.244288E-03   0.393891E+00   0.483978E+01
   0.327000E+04   0.104328E-03   0.244856E-03   0.393902E+00   0.483978E+01
   0.328000E+04   0.104579E-03   0.245415E-03   0.393917E+00   0.483978E+01
   0.329000E+04   0.104828E-03   0.245969E-03   0.393917E+00   0.483978E+01
   0.330000E+04   0.105076E-03   0.246523E-03   0.393901E+00   0.483978E+01
   0.331000E+04   0.105322E-03   0.247069E-03   0.393897E+00   0.483978E+01
   0.332000E+04   0.105564E-03   0.247606E-03   0.393904E+00   0.483978E+01
   0.333000E+04   0.105804E-03   0.248139E-03   0.393912E+00   0.483978E+01
   0.334000E+04   0.106045E-03   0.248678E-03   0.393907E+00   0.483978E+01
   0.335000E+04   0.106286E-03   0.249214E-03   0.393911E+00   0.483978E+01
   0.336000E+04   0.106522E-03   0.249742E-03   0.393919E+00   0.483978E+01
   0.337000E+04   0.106755E-03   0.250259E-03   0.393924E+00   0.483978E+01
   0.338000E+04   0.106987E-03   0.250775E-03   0.393908E+00   0.483978E+01
   0.339000E+04   0.107218E-03   0.251289E-03   0.393900E+00   0.483978E+01
   0.340000E+04   0.107446E-03   0.251797E-03   0.393908E+00   0.483978E+01
   0.341000E+04   0.107672E-03   0.252299E-03   0.393927E+00   0.483978E+01
   0.342000E+04   0.107897E-03   0.252802E-03   0.393926E+00   0.483978E+01
   0.343000E+04   0.108123E-03   0.253305E-03   0.393919E+00   0.483978E+01
   0.344000E+04   0.108345E-03   0.253800E-03   0.393921E+00   0.483978E+01
   0.345000E+04   0.108562E-03   0.254282E-03   0.393927E+00   0.483978E+01
   0.346000E+04   0.108778E-03   0.254761E-03   0.393919E+00   0.483978E+01
   0.347000E+04   0.108995E-03   0.255244E-03   0.393909E+00   0.483978E+01
   0.348000E+04   0.109210E-03   0.255724E-03   0.393918E+00   0.483978E+01
   0.349000E+04   0.109422E-03   0.256196E-03   0.393935E+00   0.483978E+01
   0.350000E+04   0.109633E-03   0.256664E-03   0.393938E+00   0.483978E+01
   0.351000E+04   0.109843E-03   0.257135E-03   0.393924E+00   0.483978E+01
   0.352000E+04   0.110051E-03   0.257597E-03   0.393920E+00   0.483978E+01
   0.353000E+04   0.110255E-03   0.258048E-03   0.393925E+00   0.483978E+01
   0.354000E+04   0.110456E-03   0.258495E-03   0.393929E+00   0.483978E+01
   0.355000E+04   0.110659E-03   0.258947E-03   0.393923E+00   0.483978E+01
   0.356000E+04   0.110861E-03   0.259398E-03   0.393929E+00   0.483978E+01
   0.357000E+04   0.111061E-03   0.259843E-03   0.393939E+00   0.483978E+01
   0.358000E+04   0.111257E-03   0.260278E-03   0.393947E+00   0.483978E+01
   0.359000E+04   0.111452E-03   0.260712E-03   0.393933E+00   0.483978E+01
   0.360000E+04   0.111646E-03   0.261144E-03   0.393921E+00   0.483978E+01
   0.361000E+04   0.111837E-03   0.261569E-03   0.393925E+00   0.483978E+01
   0.362000E+04   0.112026E-03   0.261986E-03   0.393941E+00   0.483978E+01
   0.363000E+04   0.112215E-03   0.262407E-03   0.393942E+00   0.483978E+01
   0.364000E+04   0.112404E-03   0.262831E-03   0.393936E+00   0.483978E+01
   0.365000E+04   0.112591E-03   0.263247E-03   0.393941E+00   0.483978E+01
   0.366000E+04   0.112773E-03   0.263651E-03   0.393949E+00   0.483978E+01
   0.367000E+04   0.112954E-03   0.264051E-03   0.393940E+00   0.483978E+01
   0.368000E+04   0.113135E-03   0.264454E-03   0.393926E+00   0.483978E+01
   0.369000E+04   0.113314E-03   0.264852E-03   0.393933E+00   0.483978E+01
   0.370000E+04   0.113491E-03   0.265245E-03   0.393951E+00   0.483978E+01
   0.371000E+04   0.113667E-03   0.265636E-03   0.393956E+00   0.483978E+01
   0.372000E+04   0.113844E-03   0.266030E-03   0.393944E+00   0.483978E+01
   0.373000E+04   0.114018E-03   0.266418E-03   0.393942E+00   0.483978E+01
   0.374000E+04   0.114188E-03   0.266794E-03   0.393945E+00   0.483978E+01
   0.375000E+04   0.114356E-03   0.267164E-03   0.393945E+00   0.483978E+01
   0.376000E+04   0.114525E-03   0.267540E-03   0.393936E+00   0.483978E+01
   0.377000E+04   0.114693E-03   0.267916E-03   0.393941E+00   0.483978E+01
   0.378000E+04   0.114860E-03   0.268286E-03   0.393954E+00   0.483978E+01
   0.379000E+04   0.115023E-03   0.268648E-03   0.393965E+00   0.483978E+01
   0.380000E+04   0.115187E-03   0.269011E-03   0.393953E+00   0.483978E+01
   0.381000E+04   0.115349E-03   0.269371E-03   0.393942E+00   0.483978E+01
   0.382000E+04   0.115508E-03   0.269723E-03   0.393942E+00   0.483978E+01
   0.383000E+04   0.115664E-03   0.270066E-03   0.393955E+00   0.483978E+01
   0.384000E+04   0.115820E-03   0.270414E-03   0.393954E+00   0.483978E+01
   0.385000E+04   0.115979E-03   0.270767E-03   0.393951E+00   0.483978E+01
   0.386000E+04   0.116135E-03   0.271114E-03   0.393958E+00   0.483978E+01
   0.387000E+04   0.116287E-03   0.271450E-03   0.393968E+00   0.483978E+01
   0.388000E+04   0.116437E-03   0.271783E-03   0.393959E+00   0.483978E+01
   0.389000E+04   0.116588E-03   0.272117E-03   0.393942E+00   0.483978E+01
   0.390000E+04   0.116736E-03   0.272446E-03   0.393945E+00   0.483978E+01
   0.391000E+04   0.116883E-03   0.272769E-03   0.393961E+00   0.483978E+01
   0.392000E+04   0.117029E-03   0.273092E-03   0.393969E+00   0.483978E+01
   0.393000E+04   0.117176E-03   0.273420E-03   0.393959E+00   0.483978E+01