title="breakthrough data set at     5 wells"
variables="time(days)","cavg","cpk","upk","zswi"
zone i=     1295
   0.100000E+02   0.140308E-11   0.198173E-11   0.474254E+00   0.485274E+01
   0.200000E+02   0.390713E-11   0.546850E-11   0.378136E+00   0.483022E+01
   0.300000E+02   0.890533E-11   0.124171E-10   0.377927E+00   0.483022E+01
   0.400000E+02   0.180205E-10   0.251670E-10   0.378129E+00   0.483022E+01
   0.500000E+02   0.335806E-10   0.468880E-10   0.378281E+00   0.483022E+01
   0.600000E+02   0.588355E-10   0.820460E-10   0.378401E+00   0.483022E+01
   0.700000E+02   0.982190E-10   0.136691E-09   0.378502E+00   0.483022E+01
   0.800000E+02   0.157628E-09   0.218803E-09   0.378562E+00   0.483022E+01
   0.900000E+02   0.244751E-09   0.338707E-09   0.378604E+00   0.483022E+01
   0.100000E+03   0.369412E-09   0.509480E-09   0.378632E+00   0.483022E+01
   0.110000E+03   0.543915E-09   0.747375E-09   0.378650E+00   0.483022E+01
   0.120000E+03   0.783367E-09   0.107215E-08   0.378645E+00   0.483022E+01
   0.130000E+03   0.110619E-08   0.150781E-08   0.378665E+00   0.483022E+01
   0.140000E+03   0.153413E-08   0.208235E-08   0.378663E+00   0.483022E+01
   0.150000E+03   0.209286E-08   0.282870E-08   0.378662E+00   0.483022E+01
   0.160000E+03   0.281204E-08   0.378456E-08   0.378658E+00   0.483022E+01
   0.170000E+03   0.372549E-08   0.499273E-08   0.378649E+00   0.483022E+01
   0.180000E+03   0.487138E-08   0.650113E-08   0.378638E+00   0.483022E+01
   0.190000E+03   0.629223E-08   0.836288E-08   0.378625E+00   0.483022E+01
   0.200000E+03   0.803496E-08   0.106362E-07   0.378610E+00   0.483005E+01
   0.210000E+03   0.101508E-07   0.133846E-07   0.378593E+00   0.483005E+01
   0.220000E+03   0.126950E-07   0.166759E-07   0.378576E+00   0.483005E+01
   0.230000E+03   0.157270E-07   0.205827E-07   0.378558E+00   0.483005E+01
   0.240000E+03   0.193097E-07   0.251819E-07   0.378540E+00   0.483005E+01
   0.250000E+03   0.235096E-07   0.305542E-07   0.378522E+00   0.483005E+01
   0.260000E+03   0.283963E-07   0.367836E-07   0.378503E+00   0.483005E+01
   0.270000E+03   0.340420E-07   0.439574E-07   0.378483E+00   0.483005E+01
   0.280000E+03   0.405215E-07   0.521652E-07   0.378464E+00   0.483005E+01
   0.290000E+03   0.479112E-07   0.614986E-07   0.378445E+00   0.483005E+01
   0.300000E+03   0.562892E-07   0.720509E-07   0.378425E+00   0.483005E+01
   0.310000E+03   0.657346E-07   0.839162E-07   0.378406E+00   0.483005E+01
   0.320000E+03   0.763271E-07   0.971890E-07   0.378386E+00   0.483005E+01
   0.330000E+03   0.881463E-07   0.111964E-06   0.378367E+00   0.483005E+01
   0.340000E+03   0.101272E-06   0.128334E-06   0.378348E+00   0.483005E+01
   0.350000E+03   0.115782E-06   0.146391E-06   0.378329E+00   0.483005E+01
   0.360000E+03   0.131755E-06   0.166227E-06   0.378310E+00   0.483005E+01
   0.370000E+03   0.149265E-06   0.187930E-06   0.378292E+00   0.483005E+01
   0.380000E+03   0.168387E-06   0.211584E-06   0.378274E+00   0.483005E+01
   0.390000E+03   0.189191E-06   0.237272E-06   0.378256E+00   0.483005E+01
   0.400000E+03   0.211746E-06   0.265072E-06   0.378238E+00   0.483005E+01
   0.410000E+03   0.236117E-06   0.295058E-06   0.378222E+00   0.483005E+01
   0.420000E+03   0.262365E-06   0.327299E-06   0.378205E+00   0.483005E+01
   0.430000E+03   0.290548E-06   0.361860E-06   0.378189E+00   0.483005E+01
   0.440000E+03   0.320720E-06   0.398799E-06   0.378173E+00   0.483005E+01
   0.450000E+03   0.352931E-06   0.438171E-06   0.378158E+00   0.483005E+01
   0.460000E+03   0.387223E-06   0.480022E-06   0.378144E+00   0.483005E+01
   0.470000E+03   0.423639E-06   0.524395E-06   0.378129E+00   0.483005E+01
   0.480000E+03   0.462213E-06   0.571324E-06   0.378116E+00   0.483005E+01
   0.490000E+03   0.502974E-06   0.620838E-06   0.378103E+00   0.483005E+01
   0.500000E+03   0.545949E-06   0.672959E-06   0.378090E+00   0.483005E+01
   0.510000E+03   0.591156E-06   0.727705E-06   0.378078E+00   0.483005E+01
   0.520000E+03   0.638611E-06   0.785083E-06   0.378066E+00   0.483005E+01
   0.530000E+03   0.688324E-06   0.845097E-06   0.378055E+00   0.483005E+01
   0.540000E+03   0.740299E-06   0.907744E-06   0.378044E+00   0.483005E+01
   0.550000E+03   0.794536E-06   0.973014E-06   0.378034E+00   0.483005E+01
   0.560000E+03   0.851030E-06   0.104089E-05   0.378024E+00   0.483005E+01
   0.570000E+03   0.909770E-06   0.111136E-05   0.378014E+00   0.483005E+01
   0.580000E+03   0.970743E-06   0.118438E-05   0.378005E+00   0.483005E+01
   0.590000E+03   0.103393E-05   0.125994E-05   0.377996E+00   0.483005E+01
   0.600000E+03   0.109930E-05   0.133798E-05   0.377987E+00   0.483005E+01
   0.610000E+03   0.116684E-05   0.141846E-05   0.377979E+00   0.483005E+01
   0.620000E+03   0.123650E-05   0.150135E-05   0.377971E+00   0.483005E+01
   0.630000E+03   0.130826E-05   0.158658E-05   0.377964E+00   0.483005E+01
   0.640000E+03   0.138208E-05   0.167410E-05   0.377956E+00   0.483005E+01
   0.650000E+03   0.145790E-05   0.176385E-05   0.377949E+00   0.483005E+01
   0.660000E+03   0.153570E-05   0.185577E-05   0.377943E+00   0.483005E+01
   0.670000E+03   0.161541E-05   0.194978E-05   0.377937E+00   0.483005E+01
   0.680000E+03   0.169698E-05   0.204582E-05   0.377931E+00   0.483005E+01
   0.690000E+03   0.178037E-05   0.214381E-05   0.377925E+00   0.483005E+01
   0.700000E+03   0.186551E-05   0.224368E-05   0.377920E+00   0.483005E+01
   0.710000E+03   0.195235E-05   0.234534E-05   0.377914E+00   0.483005E+01
   0.720000E+03   0.204082E-05   0.244873E-05   0.377910E+00   0.483005E+01
   0.730000E+03   0.213088E-05   0.255374E-05   0.377905E+00   0.483005E+01
   0.740000E+03   0.222244E-05   0.266031E-05   0.377901E+00   0.483005E+01
   0.750000E+03   0.231546E-05   0.276835E-05   0.377897E+00   0.483005E+01
   0.760000E+03   0.240986E-05   0.287776E-05   0.377893E+00   0.483005E+01
   0.770000E+03   0.250558E-05   0.298846E-05   0.377889E+00   0.483005E+01
   0.780000E+03   0.260256E-05   0.310037E-05   0.377886E+00   0.483005E+01
   0.790000E+03   0.270072E-05   0.321339E-05   0.377883E+00   0.483005E+01
   0.800000E+03   0.280000E-05   0.332744E-05   0.377880E+00   0.483005E+01
   0.810000E+03   0.290034E-05   0.344242E-05   0.377877E+00   0.483005E+01
   0.820000E+03   0.300167E-05   0.355826E-05   0.377875E+00   0.483005E+01
   0.830000E+03   0.310392E-05   0.367485E-05   0.377872E+00   0.483005E+01
   0.840000E+03   0.320703E-05   0.379210E-05   0.377870E+00   0.483005E+01
   0.850000E+03   0.331094E-05   0.390995E-05   0.377869E+00   0.483005E+01
   0.860000E+03   0.341557E-05   0.402828E-05   0.377867E+00   0.483005E+01
   0.870000E+03   0.352088E-05   0.414703E-05   0.377865E+00   0.483005E+01
   0.880000E+03   0.362679E-05   0.426609E-05   0.377864E+00   0.483005E+01
   0.890000E+03   0.373324E-05   0.438540E-05   0.377863E+00   0.483005E+01
   0.900000E+03   0.384018E-05   0.450486E-05   0.377862E+00   0.483005E+01
   0.910000E+03   0.394754E-05   0.462439E-05   0.377861E+00   0.483005E+01
   0.920000E+03   0.405527E-05   0.474391E-05   0.377860E+00   0.483005E+01
   0.930000E+03   0.416332E-05   0.486334E-05   0.377860E+00   0.483005E+01
   0.940000E+03   0.427162E-05   0.498261E-05   0.377859E+00   0.483005E+01
   0.950000E+03   0.438012E-05   0.510163E-05   0.377859E+00   0.483005E+01
   0.960000E+03   0.448877E-05   0.522034E-05   0.377858E+00   0.483005E+01
   0.970000E+03   0.459753E-05   0.533865E-05   0.377858E+00   0.483005E+01
   0.980000E+03   0.470633E-05   0.545651E-05   0.377858E+00   0.483005E+01
   0.990000E+03   0.481513E-05   0.557383E-05   0.377858E+00   0.483005E+01
   0.100000E+04   0.492388E-05   0.569055E-05   0.377858E+00   0.483005E+01
   0.101000E+04   0.503255E-05   0.580662E-05   0.377859E+00   0.483005E+01
   0.102000E+04   0.514107E-05   0.592195E-05   0.377859E+00   0.483005E+01
   0.103000E+04   0.524942E-05   0.603651E-05   0.377860E+00   0.483005E+01
   0.104000E+04   0.535755E-05   0.615021E-05   0.377860E+00   0.483005E+01
   0.105000E+04   0.546542E-05   0.626302E-05   0.377861E+00   0.483005E+01
   0.106000E+04   0.557300E-05   0.637488E-05   0.377862E+00   0.483005E+01
   0.107000E+04   0.568024E-05   0.648573E-05   0.377863E+00   0.483005E+01
   0.108000E+04   0.578712E-05   0.659553E-05   0.377864E+00   0.483005E+01
   0.109000E+04   0.589359E-05   0.670423E-05   0.377865E+00   0.483005E+01
   0.110000E+04   0.599964E-05   0.681178E-05   0.377866E+00   0.483005E+01
   0.111000E+04   0.610523E-05   0.691816E-05   0.377868E+00   0.483005E+01
   0.112000E+04   0.621033E-05   0.702331E-05   0.377869E+00   0.483005E+01
   0.113000E+04   0.631492E-05   0.712721E-05   0.377870E+00   0.483005E+01
   0.114000E+04   0.641897E-05   0.722982E-05   0.377872E+00   0.483005E+01
   0.115000E+04   0.652247E-05   0.733110E-05   0.377873E+00   0.483005E+01
   0.116000E+04   0.662539E-05   0.743104E-05   0.377875E+00   0.483005E+01
   0.117000E+04   0.672771E-05   0.752961E-05   0.377877E+00   0.483005E+01
   0.118000E+04   0.682942E-05   0.762677E-05   0.377878E+00   0.483005E+01
   0.119000E+04   0.693050E-05   0.772252E-05   0.377880E+00   0.483005E+01
   0.120000E+04   0.703095E-05   0.781684E-05   0.377882E+00   0.483005E+01
   0.121000E+04   0.713074E-05   0.790970E-05   0.377883E+00   0.483005E+01
   0.122000E+04   0.722988E-05   0.800110E-05   0.377885E+00   0.483005E+01
   0.123000E+04   0.732835E-05   0.811412E-05   0.377887E+00   0.483005E+01
   0.124000E+04   0.742616E-05   0.825596E-05   0.377889E+00   0.483005E+01
   0.125000E+04   0.752328E-05   0.839878E-05   0.377890E+00   0.483005E+01
   0.126000E+04   0.761974E-05   0.854261E-05   0.377892E+00   0.483005E+01
   0.127000E+04   0.771552E-05   0.868746E-05   0.377894E+00   0.483005E+01
   0.128000E+04   0.781063E-05   0.883337E-05   0.377896E+00   0.483005E+01
   0.129000E+04   0.790506E-05   0.898037E-05   0.377898E+00   0.483005E+01
   0.130000E+04   0.799884E-05   0.912848E-05   0.377900E+00   0.483005E+01
   0.131000E+04   0.809196E-05   0.927773E-05   0.377902E+00   0.483005E+01
   0.132000E+04   0.818443E-05   0.942818E-05   0.377904E+00   0.483005E+01
   0.133000E+04   0.827626E-05   0.957984E-05   0.377906E+00   0.483005E+01
   0.134000E+04   0.836747E-05   0.973275E-05   0.377909E+00   0.483005E+01
   0.135000E+04   0.845806E-05   0.988697E-05   0.377911E+00   0.483005E+01
   0.136000E+04   0.854805E-05   0.100425E-04   0.377913E+00   0.483005E+01
   0.137000E+04   0.863746E-05   0.101994E-04   0.377915E+00   0.483005E+01
   0.138000E+04   0.872630E-05   0.103578E-04   0.377918E+00   0.483005E+01
   0.139000E+04   0.881459E-05   0.105176E-04   0.377920E+00   0.483005E+01
   0.140000E+04   0.890235E-05   0.106789E-04   0.377922E+00   0.483005E+01
   0.141000E+04   0.898959E-05   0.108417E-04   0.377924E+00   0.483005E+01
   0.142000E+04   0.907635E-05   0.110061E-04   0.377927E+00   0.483005E+01
   0.143000E+04   0.916264E-05   0.111722E-04   0.377929E+00   0.483005E+01
   0.144000E+04   0.924849E-05   0.113399E-04   0.377931E+00   0.483005E+01
   0.145000E+04   0.933392E-05   0.115093E-04   0.377934E+00   0.483005E+01
   0.146000E+04   0.941895E-05   0.116804E-04   0.377937E+00   0.482988E+01
   0.147000E+04   0.950362E-05   0.118534E-04   0.377938E+00   0.482988E+01
   0.148000E+04   0.958795E-05   0.120282E-04   0.377940E+00   0.482988E+01
   0.149000E+04   0.967195E-05   0.122048E-04   0.377943E+00   0.482988E+01
   0.150000E+04   0.975567E-05   0.123833E-04   0.377945E+00   0.482988E+01
   0.151000E+04   0.983914E-05   0.125637E-04   0.377947E+00   0.482988E+01
   0.152000E+04   0.992237E-05   0.127460E-04   0.377950E+00   0.482988E+01
   0.153000E+04   0.100054E-04   0.129303E-04   0.377952E+00   0.482988E+01
   0.154000E+04   0.100883E-04   0.131166E-04   0.377955E+00   0.482988E+01
   0.155000E+04   0.101710E-04   0.133049E-04   0.377957E+00   0.482988E+01
   0.156000E+04   0.102536E-04   0.134952E-04   0.377960E+00   0.482988E+01
   0.157000E+04   0.103361E-04   0.136876E-04   0.377962E+00   0.482988E+01
   0.158000E+04   0.104186E-04   0.138820E-04   0.377965E+00   0.482988E+01
   0.159000E+04   0.105010E-04   0.140785E-04   0.377967E+00   0.482988E+01
   0.160000E+04   0.105835E-04   0.142771E-04   0.377969E+00   0.482988E+01
   0.161000E+04   0.106660E-04   0.144777E-04   0.377972E+00   0.482988E+01
   0.162000E+04   0.107486E-04   0.146805E-04   0.377974E+00   0.482988E+01
   0.163000E+04   0.108313E-04   0.148853E-04   0.377977E+00   0.482988E+01
   0.164000E+04   0.109141E-04   0.150922E-04   0.377980E+00   0.482988E+01
   0.165000E+04   0.109971E-04   0.153013E-04   0.377982E+00   0.482988E+01
   0.166000E+04   0.110803E-04   0.155124E-04   0.377985E+00   0.482988E+01
   0.167000E+04   0.111638E-04   0.157256E-04   0.377987E+00   0.482988E+01
   0.168000E+04   0.112475E-04   0.159410E-04   0.377990E+00   0.482988E+01
   0.169000E+04   0.113315E-04   0.161584E-04   0.377992E+00   0.482988E+01
   0.170000E+04   0.114158E-04   0.163779E-04   0.377995E+00   0.482988E+01
   0.171000E+04   0.115005E-04   0.165995E-04   0.377997E+00   0.482988E+01
   0.172000E+04   0.115856E-04   0.168233E-04   0.378000E+00   0.482988E+01
   0.173000E+04   0.116711E-04   0.170491E-04   0.378002E+00   0.482988E+01
   0.174000E+04   0.117570E-04   0.172770E-04   0.378005E+00   0.482988E+01
   0.175000E+04   0.118434E-04   0.175070E-04   0.378008E+00   0.482988E+01
   0.176000E+04   0.119304E-04   0.177390E-04   0.378010E+00   0.482988E+01
   0.177000E+04   0.120179E-04   0.179732E-04   0.378013E+00   0.482988E+01
   0.178000E+04   0.121059E-04   0.182095E-04   0.378015E+00   0.482988E+01
   0.179000E+04   0.121946E-04   0.184479E-04   0.378018E+00   0.482988E+01
   0.180000E+04   0.122839E-04   0.186883E-04   0.378021E+00   0.482988E+01
   0.181000E+04   0.123738E-04   0.189309E-04   0.378023E+00   0.482988E+01
   0.182000E+04   0.124645E-04   0.191755E-04   0.378026E+00   0.482988E+01
   0.183000E+04   0.125558E-04   0.194222E-04   0.378030E+00   0.482988E+01
   0.184000E+04   0.126479E-04   0.196711E-04   0.378032E+00   0.482988E+01
   0.185000E+04   0.127408E-04   0.199220E-04   0.378032E+00   0.482988E+01
   0.186000E+04   0.128343E-04   0.201742E-04   0.378034E+00   0.482988E+01
   0.187000E+04   0.129283E-04   0.204276E-04   0.378059E+00   0.482988E+01
   0.188000E+04   0.130231E-04   0.206821E-04   0.378065E+00   0.482988E+01
   0.189000E+04   0.131190E-04   0.209387E-04   0.378067E+00   0.482988E+01
   0.190000E+04   0.132159E-04   0.211974E-04   0.378070E+00   0.482988E+01
   0.191000E+04   0.133142E-04   0.214585E-04   0.378076E+00   0.482988E+01
   0.192000E+04   0.134139E-04   0.217221E-04   0.378091E+00   0.482988E+01
   0.193000E+04   0.135153E-04   0.219883E-04   0.378102E+00   0.482988E+01
   0.194000E+04   0.136186E-04   0.222577E-04   0.378104E+00   0.482988E+01
   0.195000E+04   0.137241E-04   0.225310E-04   0.378105E+00   0.482988E+01
   0.196000E+04   0.138321E-04   0.228085E-04   0.378104E+00   0.482988E+01
   0.197000E+04   0.139426E-04   0.230903E-04   0.378110E+00   0.482988E+01
   0.198000E+04   0.140557E-04   0.233766E-04   0.378123E+00   0.482988E+01
   0.199000E+04   0.141716E-04   0.236676E-04   0.378131E+00   0.482988E+01
   0.200000E+04   0.142906E-04   0.239640E-04   0.378130E+00   0.482988E+01
   0.201000E+04   0.144127E-04   0.242662E-04   0.378131E+00   0.482988E+01
   0.202000E+04   0.145382E-04   0.245745E-04   0.378129E+00   0.482988E+01
   0.203000E+04   0.146669E-04   0.248890E-04   0.378136E+00   0.482988E+01
   0.204000E+04   0.147989E-04   0.252096E-04   0.378147E+00   0.482988E+01
   0.205000E+04   0.149343E-04   0.255365E-04   0.378153E+00   0.482988E+01
   0.206000E+04   0.150731E-04   0.258703E-04   0.378151E+00   0.482988E+01
   0.207000E+04   0.152155E-04   0.262113E-04   0.378150E+00   0.482988E+01
   0.208000E+04   0.153615E-04   0.265595E-04   0.378148E+00   0.482988E+01
   0.209000E+04   0.155109E-04   0.269148E-04   0.378155E+00   0.482988E+01
   0.210000E+04   0.156637E-04   0.272770E-04   0.378165E+00   0.482988E+01
   0.211000E+04   0.158200E-04   0.276463E-04   0.378169E+00   0.482988E+01
   0.212000E+04   0.159797E-04   0.280230E-04   0.378167E+00   0.482988E+01
   0.213000E+04   0.161429E-04   0.284073E-04   0.378165E+00   0.482988E+01
   0.214000E+04   0.163096E-04   0.287991E-04   0.378163E+00   0.482988E+01
   0.215000E+04   0.164795E-04   0.291980E-04   0.378171E+00   0.482988E+01
   0.216000E+04   0.166526E-04   0.296039E-04   0.378180E+00   0.482988E+01
   0.217000E+04   0.168289E-04   0.300167E-04   0.378182E+00   0.482988E+01
   0.218000E+04   0.170084E-04   0.304367E-04   0.378181E+00   0.482988E+01
   0.219000E+04   0.171910E-04   0.308635E-04   0.378184E+00   0.482988E+01
   0.220000E+04   0.173767E-04   0.312978E-04   0.378182E+00   0.482988E+01
   0.221000E+04   0.175656E-04   0.317392E-04   0.378177E+00   0.482988E+01
   0.222000E+04   0.177574E-04   0.321869E-04   0.378183E+00   0.482988E+01
   0.223000E+04   0.179518E-04   0.326408E-04   0.378192E+00   0.482988E+01
   0.224000E+04   0.181489E-04   0.331006E-04   0.378197E+00   0.482988E+01
   0.225000E+04   0.183487E-04   0.335666E-04   0.378195E+00   0.482988E+01
   0.226000E+04   0.185513E-04   0.340389E-04   0.378193E+00   0.482988E+01
   0.227000E+04   0.187565E-04   0.345172E-04   0.378189E+00   0.482988E+01
   0.228000E+04   0.189641E-04   0.350011E-04   0.378196E+00   0.482988E+01
   0.229000E+04   0.191740E-04   0.354901E-04   0.378204E+00   0.482988E+01
   0.230000E+04   0.193862E-04   0.359841E-04   0.378208E+00   0.482988E+01
   0.231000E+04   0.196007E-04   0.364834E-04   0.378205E+00   0.482988E+01
   0.232000E+04   0.198177E-04   0.369881E-04   0.378203E+00   0.482988E+01
   0.233000E+04   0.200368E-04   0.374978E-04   0.378200E+00   0.482988E+01
   0.234000E+04   0.202580E-04   0.380120E-04   0.378207E+00   0.482988E+01
   0.235000E+04   0.204812E-04   0.385304E-04   0.378215E+00   0.482988E+01
   0.236000E+04   0.207063E-04   0.390528E-04   0.378217E+00   0.482988E+01
   0.237000E+04   0.209334E-04   0.395797E-04   0.378215E+00   0.482988E+01
   0.238000E+04   0.211624E-04   0.401105E-04   0.378218E+00   0.482988E+01
   0.239000E+04   0.213934E-04   0.406459E-04   0.378215E+00   0.482988E+01
   0.240000E+04   0.216264E-04   0.411854E-04   0.378209E+00   0.482988E+01
   0.241000E+04   0.218610E-04   0.417284E-04   0.378214E+00   0.482988E+01
   0.242000E+04   0.220972E-04   0.422746E-04   0.378224E+00   0.482988E+01
   0.243000E+04   0.223349E-04   0.428236E-04   0.378228E+00   0.482988E+01
   0.244000E+04   0.225743E-04   0.433760E-04   0.378226E+00   0.482988E+01
   0.245000E+04   0.228153E-04   0.439320E-04   0.378224E+00   0.482988E+01
   0.246000E+04   0.230580E-04   0.444913E-04   0.378219E+00   0.482988E+01
   0.247000E+04   0.233021E-04   0.450534E-04   0.378225E+00   0.482988E+01
   0.248000E+04   0.235475E-04   0.456181E-04   0.378233E+00   0.482988E+01
   0.249000E+04   0.237942E-04   0.461851E-04   0.378237E+00   0.482988E+01
   0.250000E+04   0.240424E-04   0.467550E-04   0.378234E+00   0.482988E+01
   0.251000E+04   0.242921E-04   0.473280E-04   0.378231E+00   0.482988E+01
   0.252000E+04   0.245433E-04   0.479038E-04   0.378227E+00   0.482988E+01
   0.253000E+04   0.247956E-04   0.484819E-04   0.378234E+00   0.482988E+01
   0.254000E+04   0.250491E-04   0.490621E-04   0.378242E+00   0.482988E+01
   0.255000E+04   0.253038E-04   0.496443E-04   0.378244E+00   0.482988E+01
   0.256000E+04   0.255598E-04   0.502292E-04   0.378242E+00   0.482988E+01
   0.257000E+04   0.258170E-04   0.508162E-04   0.378244E+00   0.482988E+01
   0.258000E+04   0.260756E-04   0.514062E-04   0.378242E+00   0.482988E+01
   0.259000E+04   0.263356E-04   0.519989E-04   0.378235E+00   0.482988E+01
   0.260000E+04   0.265967E-04   0.525936E-04   0.378240E+00   0.482988E+01
   0.261000E+04   0.268587E-04   0.531900E-04   0.378249E+00   0.482988E+01
   0.262000E+04   0.271217E-04   0.537881E-04   0.378254E+00   0.482988E+01
   0.263000E+04   0.273858E-04   0.543884E-04   0.378251E+00   0.482988E+01
   0.264000E+04   0.276512E-04   0.549914E-04   0.378249E+00   0.482988E+01
   0.265000E+04   0.279178E-04   0.555968E-04   0.378244E+00   0.482988E+01
   0.266000E+04   0.281853E-04   0.562043E-04   0.378250E+00   0.482988E+01
   0.267000E+04   0.284538E-04   0.568135E-04   0.378258E+00   0.482988E+01
   0.268000E+04   0.287232E-04   0.574244E-04   0.378261E+00   0.482988E+01
   0.269000E+04   0.289938E-04   0.580377E-04   0.378258E+00   0.482988E+01
   0.270000E+04   0.292656E-04   0.586538E-04   0.378255E+00   0.482988E+01
   0.271000E+04   0.295385E-04   0.592723E-04   0.378251E+00   0.482988E+01
   0.272000E+04   0.298124E-04   0.598929E-04   0.378259E+00   0.482988E+01
   0.273000E+04   0.300870E-04   0.605148E-04   0.378265E+00   0.482988E+01
   0.274000E+04   0.303632E-04   0.611410E-04   0.378259E+00   0.482988E+01
   0.275000E+04   0.306405E-04   0.617697E-04   0.378262E+00   0.482988E+01
   0.276000E+04   0.309188E-04   0.624010E-04   0.378265E+00   0.482988E+01
   0.277000E+04   0.311984E-04   0.630353E-04   0.378261E+00   0.482988E+01
   0.278000E+04   0.314789E-04   0.636715E-04   0.378255E+00   0.482988E+01
   0.279000E+04   0.317604E-04   0.643102E-04   0.378255E+00   0.482988E+01
   0.280000E+04   0.320425E-04   0.649506E-04   0.378269E+00   0.482988E+01
   0.281000E+04   0.323252E-04   0.655923E-04   0.378272E+00   0.482988E+01
   0.282000E+04   0.326089E-04   0.662366E-04   0.378269E+00   0.482988E+01
   0.283000E+04   0.328936E-04   0.668837E-04   0.378267E+00   0.482988E+01
   0.284000E+04   0.331793E-04   0.675333E-04   0.378262E+00   0.482988E+01
   0.285000E+04   0.334657E-04   0.681851E-04   0.378269E+00   0.482988E+01
   0.286000E+04   0.337527E-04   0.688388E-04   0.378277E+00   0.482988E+01
   0.287000E+04   0.340405E-04   0.694943E-04   0.378279E+00   0.482988E+01
   0.288000E+04   0.343291E-04   0.701525E-04   0.378277E+00   0.482988E+01
   0.289000E+04   0.346188E-04   0.708137E-04   0.378273E+00   0.482988E+01
   0.290000E+04   0.349094E-04   0.714775E-04   0.378270E+00   0.482988E+01
   0.291000E+04   0.352007E-04   0.721435E-04   0.378279E+00   0.482988E+01
   0.292000E+04   0.354927E-04   0.728116E-04   0.378286E+00   0.482988E+01
   0.293000E+04   0.357853E-04   0.734818E-04   0.378286E+00   0.482988E+01
   0.294000E+04   0.360790E-04   0.741550E-04   0.378284E+00   0.482988E+01
   0.295000E+04   0.363737E-04   0.748314E-04   0.378279E+00   0.482988E+01
   0.296000E+04   0.366692E-04   0.755104E-04   0.378278E+00   0.482988E+01
   0.297000E+04   0.369654E-04   0.761917E-04   0.378288E+00   0.482988E+01
   0.298000E+04   0.372621E-04   0.768750E-04   0.378294E+00   0.482988E+01
   0.299000E+04   0.375596E-04   0.775607E-04   0.378292E+00   0.482988E+01
   0.300000E+04   0.378581E-04   0.782496E-04   0.378291E+00   0.482988E+01
   0.301000E+04   0.381575E-04   0.789416E-04   0.378284E+00   0.482988E+01
   0.302000E+04   0.384577E-04   0.796361E-04   0.378287E+00   0.482988E+01
   0.303000E+04   0.387585E-04   0.803329E-04   0.378297E+00   0.482988E+01
   0.304000E+04   0.390598E-04   0.810315E-04   0.378301E+00   0.482988E+01
   0.305000E+04   0.393619E-04   0.817328E-04   0.378298E+00   0.482988E+01
   0.306000E+04   0.396649E-04   0.824372E-04   0.378296E+00   0.482988E+01
   0.307000E+04   0.399687E-04   0.831444E-04   0.378290E+00   0.482988E+01
   0.308000E+04   0.402731E-04   0.838540E-04   0.378296E+00   0.482988E+01
   0.309000E+04   0.405780E-04   0.845656E-04   0.378304E+00   0.482988E+01
   0.310000E+04   0.408834E-04   0.852789E-04   0.378306E+00   0.482988E+01
   0.311000E+04   0.411894E-04   0.859949E-04   0.378304E+00   0.482988E+01
   0.312000E+04   0.414964E-04   0.867138E-04   0.378300E+00   0.482988E+01
   0.313000E+04   0.418039E-04   0.874351E-04   0.378295E+00   0.482988E+01
   0.314000E+04   0.421120E-04   0.881584E-04   0.378304E+00   0.482988E+01
   0.315000E+04   0.424203E-04   0.888835E-04   0.378311E+00   0.482988E+01
   0.316000E+04   0.427290E-04   0.896100E-04   0.378311E+00   0.482988E+01
   0.317000E+04   0.430384E-04   0.903390E-04   0.378310E+00   0.482988E+01
   0.318000E+04   0.433484E-04   0.910707E-04   0.378304E+00   0.482988E+01
   0.319000E+04   0.436590E-04   0.918043E-04   0.378301E+00   0.482988E+01
   0.320000E+04   0.439698E-04   0.925395E-04   0.378311E+00   0.482988E+01
   0.321000E+04   0.442808E-04   0.932759E-04   0.378318E+00   0.482988E+01
   0.322000E+04   0.445920E-04   0.940136E-04   0.378316E+00   0.482988E+01
   0.323000E+04   0.449037E-04   0.947535E-04   0.378315E+00   0.482988E+01
   0.324000E+04   0.452161E-04   0.954956E-04   0.378308E+00   0.482988E+01
   0.325000E+04   0.455287E-04   0.962392E-04   0.378308E+00   0.482988E+01
   0.326000E+04   0.458415E-04   0.969840E-04   0.378318E+00   0.482988E+01
   0.327000E+04   0.461542E-04   0.977293E-04   0.378324E+00   0.482988E+01
   0.328000E+04   0.464672E-04   0.984758E-04   0.378321E+00   0.482988E+01
   0.329000E+04   0.467806E-04   0.992242E-04   0.378319E+00   0.482988E+01
   0.330000E+04   0.470943E-04   0.999742E-04   0.378312E+00   0.482988E+01
   0.331000E+04   0.474083E-04   0.100725E-03   0.378316E+00   0.482988E+01
   0.332000E+04   0.477222E-04   0.101477E-03   0.378325E+00   0.482988E+01
   0.333000E+04   0.480359E-04   0.102229E-03   0.378329E+00   0.482988E+01
   0.334000E+04   0.483498E-04   0.102982E-03   0.378325E+00   0.482988E+01
   0.335000E+04   0.486640E-04   0.103736E-03   0.378322E+00   0.482988E+01
   0.336000E+04   0.489784E-04   0.104492E-03   0.378316E+00   0.482988E+01
   0.337000E+04   0.492928E-04   0.105248E-03   0.378323E+00   0.482988E+01
   0.338000E+04   0.496070E-04   0.106004E-03   0.378331E+00   0.482988E+01
   0.339000E+04   0.499209E-04   0.106760E-03   0.378333E+00   0.482988E+01
   0.340000E+04   0.502349E-04   0.107516E-03   0.378330E+00   0.482988E+01
   0.341000E+04   0.505491E-04   0.108274E-03   0.378325E+00   0.482988E+01
   0.342000E+04   0.508633E-04   0.109032E-03   0.378320E+00   0.482988E+01
   0.343000E+04   0.511773E-04   0.109791E-03   0.378329E+00   0.482988E+01
   0.344000E+04   0.514910E-04   0.110549E-03   0.378336E+00   0.482988E+01
   0.345000E+04   0.518042E-04   0.111306E-03   0.378336E+00   0.482988E+01
   0.346000E+04   0.521174E-04   0.112064E-03   0.378334E+00   0.482988E+01
   0.347000E+04   0.524307E-04   0.112823E-03   0.378328E+00   0.482988E+01
   0.348000E+04   0.527439E-04   0.113581E-03   0.378325E+00   0.482988E+01
   0.349000E+04   0.530567E-04   0.114339E-03   0.378334E+00   0.482988E+01
   0.350000E+04   0.533689E-04   0.115096E-03   0.378341E+00   0.482988E+01
   0.351000E+04   0.536807E-04   0.115853E-03   0.378340E+00   0.482988E+01
   0.352000E+04   0.539924E-04   0.116609E-03   0.378338E+00   0.482988E+01
   0.353000E+04   0.543040E-04   0.117366E-03   0.378331E+00   0.482988E+01
   0.354000E+04   0.546153E-04   0.118122E-03   0.378330E+00   0.482988E+01
   0.355000E+04   0.549261E-04   0.118878E-03   0.378340E+00   0.482988E+01
   0.356000E+04   0.552362E-04   0.119632E-03   0.378346E+00   0.482988E+01
   0.357000E+04   0.555457E-04   0.120385E-03   0.378343E+00   0.482988E+01
   0.358000E+04   0.558552E-04   0.121138E-03   0.378342E+00   0.482988E+01
   0.359000E+04   0.561644E-04   0.121890E-03   0.378334E+00   0.482988E+01
   0.360000E+04   0.564731E-04   0.122642E-03   0.378335E+00   0.482988E+01
   0.361000E+04   0.567813E-04   0.123393E-03   0.378345E+00   0.482988E+01
   0.362000E+04   0.570885E-04   0.124142E-03   0.378350E+00   0.482988E+01
   0.363000E+04   0.573952E-04   0.124889E-03   0.378347E+00   0.482988E+01
   0.364000E+04   0.577017E-04   0.125636E-03   0.378344E+00   0.482988E+01
   0.365000E+04   0.580079E-04   0.126383E-03   0.378337E+00   0.482988E+01
   0.366000E+04   0.583134E-04   0.127128E-03   0.378340E+00   0.482988E+01
   0.367000E+04   0.586183E-04   0.127872E-03   0.378350E+00   0.482988E+01
   0.368000E+04   0.589221E-04   0.128613E-03   0.378353E+00   0.482988E+01
   0.369000E+04   0.592253E-04   0.129353E-03   0.378350E+00   0.482988E+01
   0.370000E+04   0.595283E-04   0.130093E-03   0.378346E+00   0.482988E+01
   0.371000E+04   0.598307E-04   0.130831E-03   0.378339E+00   0.482988E+01
   0.372000E+04   0.601324E-04   0.131568E-03   0.378346E+00   0.482988E+01
   0.373000E+04   0.604333E-04   0.132303E-03   0.378354E+00   0.482988E+01
   0.374000E+04   0.607331E-04   0.133036E-03   0.378356E+00   0.482988E+01
   0.375000E+04   0.610323E-04   0.133767E-03   0.378353E+00   0.482988E+01
   0.376000E+04   0.613311E-04   0.134497E-03   0.378348E+00   0.482988E+01
   0.377000E+04   0.616293E-04   0.135226E-03   0.378342E+00   0.482988E+01
   0.378000E+04   0.619267E-04   0.135953E-03   0.378350E+00   0.482988E+01
   0.379000E+04   0.622231E-04   0.136678E-03   0.378358E+00   0.482988E+01
   0.380000E+04   0.625183E-04   0.137399E-03   0.378359E+00   0.482988E+01
   0.381000E+04   0.628129E-04   0.138120E-03   0.378356E+00   0.482988E+01
   0.382000E+04   0.631071E-04   0.138840E-03   0.378350E+00   0.482988E+01
   0.383000E+04   0.634005E-04   0.139557E-03   0.378345E+00   0.482988E+01
   0.384000E+04   0.636931E-04   0.140273E-03   0.378354E+00   0.482988E+01
   0.385000E+04   0.639846E-04   0.140986E-03   0.378361E+00   0.482988E+01
   0.386000E+04   0.642748E-04   0.141696E-03   0.378361E+00   0.482988E+01
   0.387000E+04   0.645645E-04   0.142405E-03   0.378359E+00   0.482988E+01
   0.388000E+04   0.648536E-04   0.143113E-03   0.378352E+00   0.482988E+01
   0.389000E+04   0.651419E-04   0.143818E-03   0.378349E+00   0.482988E+01
   0.390000E+04   0.654293E-04   0.144522E-03   0.378358E+00   0.482988E+01
   0.391000E+04   0.657155E-04   0.145222E-03   0.378365E+00   0.482988E+01
   0.392000E+04   0.660005E-04   0.145920E-03   0.378364E+00   0.482988E+01
   0.393000E+04   0.662848E-04   0.146616E-03   0.378362E+00   0.482988E+01