title="breakthrough data set at     5 wells"
variables="time(days)","cavg","cpk","upk","zswi"
zone i=     1295
   0.100000E+02   0.195827E-11   0.257509E-11   0.462493E+00   0.485370E+01
   0.200000E+02   0.466793E-11   0.601573E-11   0.360896E+00   0.482991E+01
   0.300000E+02   0.958727E-11   0.121924E-10   0.360279E+00   0.482991E+01
   0.400000E+02   0.179024E-10   0.225959E-10   0.360252E+00   0.482991E+01
   0.500000E+02   0.312295E-10   0.392796E-10   0.360282E+00   0.482991E+01
   0.600000E+02   0.517305E-10   0.650181E-10   0.360343E+00   0.482991E+01
   0.700000E+02   0.822181E-10   0.103457E-09   0.360433E+00   0.482991E+01
   0.800000E+02   0.126262E-09   0.159263E-09   0.360508E+00   0.482991E+01
   0.900000E+02   0.188340E-09   0.238343E-09   0.360608E+00   0.482991E+01
   0.100000E+03   0.273884E-09   0.347904E-09   0.360711E+00   0.482991E+01
   0.110000E+03   0.390097E-09   0.497597E-09   0.360718E+00   0.482991E+01
   0.120000E+03   0.544186E-09   0.697076E-09   0.360814E+00   0.482991E+01
   0.130000E+03   0.744991E-09   0.958237E-09   0.360917E+00   0.482991E+01
   0.140000E+03   0.100259E-08   0.129465E-08   0.361020E+00   0.482991E+01
   0.150000E+03   0.132829E-08   0.172150E-08   0.361121E+00   0.482991E+01
   0.160000E+03   0.173463E-08   0.225557E-08   0.361221E+00   0.482991E+01
   0.170000E+03   0.223533E-08   0.291514E-08   0.361319E+00   0.482991E+01
   0.180000E+03   0.284532E-08   0.371989E-08   0.361415E+00   0.482991E+01
   0.190000E+03   0.358061E-08   0.469079E-08   0.361509E+00   0.482991E+01
   0.200000E+03   0.445830E-08   0.584988E-08   0.361601E+00   0.482991E+01
   0.210000E+03   0.549646E-08   0.722015E-08   0.361691E+00   0.482991E+01
   0.220000E+03   0.671404E-08   0.882529E-08   0.361779E+00   0.482991E+01
   0.230000E+03   0.813083E-08   0.106895E-07   0.361865E+00   0.482991E+01
   0.240000E+03   0.976728E-08   0.128372E-07   0.361950E+00   0.482991E+01
   0.250000E+03   0.116444E-07   0.152928E-07   0.362034E+00   0.482991E+01
   0.260000E+03   0.137839E-07   0.180805E-07   0.362115E+00   0.482991E+01
   0.270000E+03   0.162075E-07   0.212240E-07   0.362196E+00   0.482991E+01
   0.280000E+03   0.189374E-07   0.247464E-07   0.362275E+00   0.482991E+01
   0.290000E+03   0.219961E-07   0.286696E-07   0.362352E+00   0.482991E+01
   0.300000E+03   0.254059E-07   0.330146E-07   0.362428E+00   0.482991E+01
   0.310000E+03   0.291892E-07   0.378008E-07   0.362503E+00   0.482991E+01
   0.320000E+03   0.333681E-07   0.430460E-07   0.362577E+00   0.482991E+01
   0.330000E+03   0.379643E-07   0.487663E-07   0.362649E+00   0.482991E+01
   0.340000E+03   0.429994E-07   0.549755E-07   0.362721E+00   0.482991E+01
   0.350000E+03   0.484943E-07   0.616856E-07   0.362791E+00   0.482991E+01
   0.360000E+03   0.544692E-07   0.689057E-07   0.362860E+00   0.482991E+01
   0.370000E+03   0.609436E-07   0.766430E-07   0.362929E+00   0.482991E+01
   0.380000E+03   0.679362E-07   0.849016E-07   0.362996E+00   0.482991E+01
   0.390000E+03   0.754648E-07   0.936830E-07   0.363062E+00   0.482991E+01
   0.400000E+03   0.835459E-07   0.102986E-06   0.363128E+00   0.482991E+01
   0.410000E+03   0.921952E-07   0.112806E-06   0.363192E+00   0.482991E+01
   0.420000E+03   0.101427E-06   0.123136E-06   0.363256E+00   0.482991E+01
   0.430000E+03   0.111254E-06   0.133965E-06   0.363319E+00   0.482991E+01
   0.440000E+03   0.121687E-06   0.146979E-06   0.363381E+00   0.482991E+01
   0.450000E+03   0.132736E-06   0.161055E-06   0.363442E+00   0.482991E+01
   0.460000E+03   0.144410E-06   0.176027E-06   0.363502E+00   0.482991E+01
   0.470000E+03   0.156714E-06   0.191917E-06   0.363562E+00   0.482991E+01
   0.480000E+03   0.169653E-06   0.208744E-06   0.363620E+00   0.482991E+01
   0.490000E+03   0.183228E-06   0.226525E-06   0.363678E+00   0.482991E+01
   0.500000E+03   0.197441E-06   0.245274E-06   0.363735E+00   0.482991E+01
   0.510000E+03   0.212289E-06   0.265005E-06   0.363792E+00   0.482991E+01
   0.520000E+03   0.227768E-06   0.285727E-06   0.363847E+00   0.482991E+01
   0.530000E+03   0.243871E-06   0.307450E-06   0.363902E+00   0.482991E+01
   0.540000E+03   0.260590E-06   0.330177E-06   0.363956E+00   0.482991E+01
   0.550000E+03   0.277913E-06   0.353912E-06   0.364009E+00   0.482991E+01
   0.560000E+03   0.295827E-06   0.378654E-06   0.364062E+00   0.482991E+01
   0.570000E+03   0.314314E-06   0.404401E-06   0.364114E+00   0.482991E+01
   0.580000E+03   0.333358E-06   0.431146E-06   0.364165E+00   0.482991E+01
   0.590000E+03   0.352935E-06   0.458880E-06   0.364215E+00   0.482991E+01
   0.600000E+03   0.373021E-06   0.487591E-06   0.364265E+00   0.482991E+01
   0.610000E+03   0.393591E-06   0.517265E-06   0.364314E+00   0.482991E+01
   0.620000E+03   0.414615E-06   0.547882E-06   0.364362E+00   0.482991E+01
   0.630000E+03   0.436059E-06   0.579422E-06   0.364410E+00   0.482991E+01
   0.640000E+03   0.457889E-06   0.611858E-06   0.364456E+00   0.482991E+01
   0.650000E+03   0.480067E-06   0.645164E-06   0.364503E+00   0.482991E+01
   0.660000E+03   0.502550E-06   0.679306E-06   0.364548E+00   0.482991E+01
   0.670000E+03   0.525295E-06   0.714249E-06   0.364593E+00   0.482991E+01
   0.680000E+03   0.548253E-06   0.749955E-06   0.364638E+00   0.482991E+01
   0.690000E+03   0.571374E-06   0.786381E-06   0.364681E+00   0.482991E+01
   0.700000E+03   0.594603E-06   0.823481E-06   0.364724E+00   0.482991E+01
   0.710000E+03   0.617883E-06   0.861206E-06   0.364767E+00   0.482991E+01
   0.720000E+03   0.641151E-06   0.899503E-06   0.364809E+00   0.482991E+01
   0.730000E+03   0.664345E-06   0.938316E-06   0.364850E+00   0.482991E+01
   0.740000E+03   0.687397E-06   0.977586E-06   0.364890E+00   0.482991E+01
   0.750000E+03   0.710235E-06   0.101725E-05   0.364929E+00   0.482991E+01
   0.760000E+03   0.732785E-06   0.105724E-05   0.364968E+00   0.482991E+01
   0.770000E+03   0.754971E-06   0.109750E-05   0.365006E+00   0.482991E+01
   0.780000E+03   0.776713E-06   0.113794E-05   0.365044E+00   0.482991E+01
   0.790000E+03   0.797928E-06   0.117850E-05   0.365081E+00   0.482991E+01
   0.800000E+03   0.818530E-06   0.121911E-05   0.365117E+00   0.482991E+01
   0.810000E+03   0.838432E-06   0.125967E-05   0.365152E+00   0.482991E+01
   0.820000E+03   0.857542E-06   0.130012E-05   0.365187E+00   0.482991E+01
   0.830000E+03   0.875770E-06   0.134038E-05   0.365221E+00   0.482991E+01
   0.840000E+03   0.893020E-06   0.138036E-05   0.365255E+00   0.482991E+01
   0.850000E+03   0.909198E-06   0.141997E-05   0.365288E+00   0.482991E+01
   0.860000E+03   0.924205E-06   0.145915E-05   0.365321E+00   0.482991E+01
   0.870000E+03   0.937944E-06   0.149781E-05   0.365354E+00   0.482991E+01
   0.880000E+03   0.950318E-06   0.153586E-05   0.365385E+00   0.482991E+01
   0.890000E+03   0.961227E-06   0.157323E-05   0.365417E+00   0.482991E+01
   0.900000E+03   0.970573E-06   0.160983E-05   0.365448E+00   0.482991E+01
   0.910000E+03   0.978259E-06   0.164561E-05   0.365478E+00   0.482991E+01
   0.920000E+03   0.984189E-06   0.168047E-05   0.365509E+00   0.482991E+01
   0.930000E+03   0.988268E-06   0.171436E-05   0.365539E+00   0.482991E+01
   0.940000E+03   0.990405E-06   0.174720E-05   0.365568E+00   0.482991E+01
   0.950000E+03   0.990510E-06   0.177893E-05   0.365597E+00   0.482991E+01
   0.960000E+03   0.988497E-06   0.180951E-05   0.365626E+00   0.482991E+01
   0.970000E+03   0.984284E-06   0.183887E-05   0.365654E+00   0.482991E+01
   0.980000E+03   0.977794E-06   0.186696E-05   0.365682E+00   0.482991E+01
   0.990000E+03   0.968953E-06   0.189457E-05   0.365710E+00   0.482991E+01
   0.100000E+04   0.957694E-06   0.194336E-05   0.365737E+00   0.482991E+01
   0.101000E+04   0.943953E-06   0.199235E-05   0.365765E+00   0.482991E+01
   0.102000E+04   0.927672E-06   0.204152E-05   0.365791E+00   0.482991E+01
   0.103000E+04   0.908799E-06   0.209085E-05   0.365818E+00   0.482991E+01
   0.104000E+04   0.887288E-06   0.214033E-05   0.365844E+00   0.482991E+01
   0.105000E+04   0.863097E-06   0.218992E-05   0.365869E+00   0.482991E+01
   0.106000E+04   0.836192E-06   0.223963E-05   0.365894E+00   0.482991E+01
   0.107000E+04   0.806543E-06   0.228942E-05   0.365919E+00   0.482991E+01
   0.108000E+04   0.774128E-06   0.233928E-05   0.365944E+00   0.482991E+01
   0.109000E+04   0.738930E-06   0.238920E-05   0.365968E+00   0.482991E+01
   0.110000E+04   0.700939E-06   0.243915E-05   0.365992E+00   0.482991E+01
   0.111000E+04   0.660150E-06   0.248912E-05   0.366015E+00   0.482991E+01
   0.112000E+04   0.616567E-06   0.253910E-05   0.366039E+00   0.482991E+01
   0.113000E+04   0.570197E-06   0.258906E-05   0.366062E+00   0.482991E+01
   0.114000E+04   0.521056E-06   0.263900E-05   0.366085E+00   0.482991E+01
   0.115000E+04   0.469164E-06   0.268889E-05   0.366107E+00   0.482991E+01
   0.116000E+04   0.414549E-06   0.273872E-05   0.366130E+00   0.482991E+01
   0.117000E+04   0.357242E-06   0.278847E-05   0.366152E+00   0.482991E+01
   0.118000E+04   0.297280E-06   0.283813E-05   0.366174E+00   0.482991E+01
   0.119000E+04   0.234708E-06   0.288768E-05   0.366196E+00   0.482991E+01
   0.120000E+04   0.169571E-06   0.293711E-05   0.366217E+00   0.482991E+01
   0.121000E+04   0.101922E-06   0.298639E-05   0.366239E+00   0.482991E+01
   0.122000E+04   0.318166E-07   0.303553E-05   0.366260E+00   0.482991E+01
   0.123000E+04  -0.406851E-07   0.308448E-05   0.366281E+00   0.482991E+01
   0.124000E+04  -0.115520E-06   0.313326E-05   0.366302E+00   0.482991E+01
   0.125000E+04  -0.192622E-06   0.318183E-05   0.366322E+00   0.482991E+01
   0.126000E+04  -0.271921E-06   0.323018E-05   0.366343E+00   0.482991E+01
   0.127000E+04  -0.353345E-06   0.327829E-05   0.366363E+00   0.482991E+01
   0.128000E+04  -0.436820E-06   0.332616E-05   0.366383E+00   0.482991E+01
   0.129000E+04  -0.522271E-06   0.337377E-05   0.366403E+00   0.482991E+01
   0.130000E+04  -0.609619E-06   0.342110E-05   0.366423E+00   0.482991E+01
   0.131000E+04  -0.698784E-06   0.346814E-05   0.366443E+00   0.482991E+01
   0.132000E+04  -0.789686E-06   0.351487E-05   0.366462E+00   0.482991E+01
   0.133000E+04  -0.882244E-06   0.356128E-05   0.366481E+00   0.482991E+01
   0.134000E+04  -0.976374E-06   0.360736E-05   0.366500E+00   0.482991E+01
   0.135000E+04  -0.107200E-05   0.365309E-05   0.366519E+00   0.482991E+01
   0.136000E+04  -0.116903E-05   0.369847E-05   0.366538E+00   0.482991E+01
   0.137000E+04  -0.126738E-05   0.374347E-05   0.366556E+00   0.482991E+01
   0.138000E+04  -0.136698E-05   0.378809E-05   0.366575E+00   0.482991E+01
   0.139000E+04  -0.146775E-05   0.383231E-05   0.366593E+00   0.482991E+01
   0.140000E+04  -0.156959E-05   0.387613E-05   0.366611E+00   0.482991E+01
   0.141000E+04  -0.167245E-05   0.391953E-05   0.366628E+00   0.482991E+01
   0.142000E+04  -0.177622E-05   0.396250E-05   0.366646E+00   0.482991E+01
   0.143000E+04  -0.188085E-05   0.400504E-05   0.366663E+00   0.482991E+01
   0.144000E+04  -0.198626E-05   0.404713E-05   0.366680E+00   0.482991E+01
   0.145000E+04  -0.209237E-05   0.408876E-05   0.366697E+00   0.482991E+01
   0.146000E+04  -0.219912E-05   0.412993E-05   0.366714E+00   0.482991E+01
   0.147000E+04  -0.230643E-05   0.417063E-05   0.366731E+00   0.482991E+01
   0.148000E+04  -0.241425E-05   0.421085E-05   0.366747E+00   0.482991E+01
   0.149000E+04  -0.252250E-05   0.425059E-05   0.366763E+00   0.482991E+01
   0.150000E+04  -0.263113E-05   0.428983E-05   0.366779E+00   0.482991E+01
   0.151000E+04  -0.274007E-05   0.432858E-05   0.366795E+00   0.482991E+01
   0.152000E+04  -0.284927E-05   0.436682E-05   0.366811E+00   0.482991E+01
   0.153000E+04  -0.295867E-05   0.440456E-05   0.366827E+00   0.482991E+01
   0.154000E+04  -0.306822E-05   0.444178E-05   0.366842E+00   0.482991E+01
   0.155000E+04  -0.317787E-05   0.447849E-05   0.366858E+00   0.482991E+01
   0.156000E+04  -0.328757E-05   0.451468E-05   0.366873E+00   0.482991E+01
   0.157000E+04  -0.339727E-05   0.455034E-05   0.366888E+00   0.482991E+01
   0.158000E+04  -0.350693E-05   0.458548E-05   0.366903E+00   0.482991E+01
   0.159000E+04  -0.361652E-05   0.462009E-05   0.366918E+00   0.482991E+01
   0.160000E+04  -0.372598E-05   0.465418E-05   0.366933E+00   0.482991E+01
   0.161000E+04  -0.383529E-05   0.468773E-05   0.366947E+00   0.482991E+01
   0.162000E+04  -0.394441E-05   0.472075E-05   0.366962E+00   0.482991E+01
   0.163000E+04  -0.405330E-05   0.475323E-05   0.366976E+00   0.482991E+01
   0.164000E+04  -0.416194E-05   0.478518E-05   0.366990E+00   0.482991E+01
   0.165000E+04  -0.427030E-05   0.481660E-05   0.367004E+00   0.482991E+01
   0.166000E+04  -0.437835E-05   0.484749E-05   0.367018E+00   0.482991E+01
   0.167000E+04  -0.448608E-05   0.487784E-05   0.367032E+00   0.482991E+01
   0.168000E+04  -0.459345E-05   0.490766E-05   0.367046E+00   0.482991E+01
   0.169000E+04  -0.470046E-05   0.493695E-05   0.367060E+00   0.482991E+01
   0.170000E+04  -0.480708E-05   0.496571E-05   0.367073E+00   0.482991E+01
   0.171000E+04  -0.491330E-05   0.499395E-05   0.367087E+00   0.482991E+01
   0.172000E+04  -0.501910E-05   0.502166E-05   0.367100E+00   0.482991E+01
   0.173000E+04  -0.512447E-05   0.504885E-05   0.367113E+00   0.482991E+01
   0.174000E+04  -0.522941E-05   0.507552E-05   0.367126E+00   0.482991E+01
   0.175000E+04  -0.533390E-05   0.510168E-05   0.367139E+00   0.482991E+01
   0.176000E+04  -0.543794E-05   0.512732E-05   0.367152E+00   0.482991E+01
   0.177000E+04  -0.554152E-05   0.515246E-05   0.367165E+00   0.482991E+01
   0.178000E+04  -0.564464E-05   0.517709E-05   0.367178E+00   0.482991E+01
   0.179000E+04  -0.574729E-05   0.520122E-05   0.367190E+00   0.482991E+01
   0.180000E+04  -0.584949E-05   0.522485E-05   0.367203E+00   0.482991E+01
   0.181000E+04  -0.595122E-05   0.524799E-05   0.367215E+00   0.482991E+01
   0.182000E+04  -0.605249E-05   0.527063E-05   0.367227E+00   0.482991E+01
   0.183000E+04  -0.615331E-05   0.529279E-05   0.367239E+00   0.482991E+01
   0.184000E+04  -0.625369E-05   0.531447E-05   0.367251E+00   0.482991E+01
   0.185000E+04  -0.635362E-05   0.533566E-05   0.367262E+00   0.482991E+01
   0.186000E+04  -0.645312E-05   0.535637E-05   0.367274E+00   0.482991E+01
   0.187000E+04  -0.655218E-05   0.537662E-05   0.367286E+00   0.482991E+01
   0.188000E+04  -0.665082E-05   0.539639E-05   0.367297E+00   0.482991E+01
   0.189000E+04  -0.674903E-05   0.541570E-05   0.367308E+00   0.482991E+01
   0.190000E+04  -0.684683E-05   0.543454E-05   0.367320E+00   0.482991E+01
   0.191000E+04  -0.694421E-05   0.545293E-05   0.367331E+00   0.482991E+01
   0.192000E+04  -0.704119E-05   0.547087E-05   0.367342E+00   0.482991E+01
   0.193000E+04  -0.713774E-05   0.548836E-05   0.367353E+00   0.482991E+01
   0.194000E+04  -0.723389E-05   0.550540E-05   0.367364E+00   0.482991E+01
   0.195000E+04  -0.732963E-05   0.552201E-05   0.367375E+00   0.482991E+01
   0.196000E+04  -0.742495E-05   0.553819E-05   0.367385E+00   0.482991E+01
   0.197000E+04  -0.751986E-05   0.557151E-05   0.367396E+00   0.482991E+01
   0.198000E+04  -0.761434E-05   0.560904E-05   0.367406E+00   0.482991E+01
   0.199000E+04  -0.770840E-05   0.564630E-05   0.367417E+00   0.482991E+01
   0.200000E+04  -0.780202E-05   0.568327E-05   0.367427E+00   0.482991E+01
   0.201000E+04  -0.789519E-05   0.571997E-05   0.367437E+00   0.482991E+01
   0.202000E+04  -0.798792E-05   0.575638E-05   0.367448E+00   0.482991E+01
   0.203000E+04  -0.808017E-05   0.579252E-05   0.367458E+00   0.482991E+01
   0.204000E+04  -0.817195E-05   0.582837E-05   0.367468E+00   0.482991E+01
   0.205000E+04  -0.826324E-05   0.586394E-05   0.367478E+00   0.482991E+01
   0.206000E+04  -0.835402E-05   0.589923E-05   0.367487E+00   0.482991E+01
   0.207000E+04  -0.844428E-05   0.593424E-05   0.367497E+00   0.482991E+01
   0.208000E+04  -0.853400E-05   0.596896E-05   0.367507E+00   0.482991E+01
   0.209000E+04  -0.862315E-05   0.600340E-05   0.367516E+00   0.482991E+01
   0.210000E+04  -0.871173E-05   0.603755E-05   0.367526E+00   0.482991E+01
   0.211000E+04  -0.879971E-05   0.607142E-05   0.367535E+00   0.482991E+01
   0.212000E+04  -0.888706E-05   0.610500E-05   0.367545E+00   0.482991E+01
   0.213000E+04  -0.897376E-05   0.613830E-05   0.367554E+00   0.482991E+01
   0.214000E+04  -0.905980E-05   0.617132E-05   0.367563E+00   0.482991E+01
   0.215000E+04  -0.914514E-05   0.620405E-05   0.367572E+00   0.482991E+01
   0.216000E+04  -0.922977E-05   0.623649E-05   0.367581E+00   0.482991E+01
   0.217000E+04  -0.931364E-05   0.626865E-05   0.367590E+00   0.482991E+01
   0.218000E+04  -0.939675E-05   0.630053E-05   0.367599E+00   0.482991E+01
   0.219000E+04  -0.947905E-05   0.633212E-05   0.367607E+00   0.482991E+01
   0.220000E+04  -0.956051E-05   0.636343E-05   0.367616E+00   0.482991E+01
   0.221000E+04  -0.964112E-05   0.639445E-05   0.367624E+00   0.482991E+01
   0.222000E+04  -0.972083E-05   0.642520E-05   0.367633E+00   0.482991E+01
   0.223000E+04  -0.979961E-05   0.645566E-05   0.367641E+00   0.482991E+01
   0.224000E+04  -0.987744E-05   0.648584E-05   0.367649E+00   0.482991E+01
   0.225000E+04  -0.995426E-05   0.651574E-05   0.367657E+00   0.482991E+01
   0.226000E+04  -0.100301E-04   0.654537E-05   0.367665E+00   0.482991E+01
   0.227000E+04  -0.101048E-04   0.657471E-05   0.367673E+00   0.482991E+01
   0.228000E+04  -0.101784E-04   0.660378E-05   0.367681E+00   0.482991E+01
   0.229000E+04  -0.102509E-04   0.663257E-05   0.367689E+00   0.482991E+01
   0.230000E+04  -0.103222E-04   0.666109E-05   0.367697E+00   0.482991E+01
   0.231000E+04  -0.103922E-04   0.668934E-05   0.367704E+00   0.482991E+01
   0.232000E+04  -0.104610E-04   0.671731E-05   0.367712E+00   0.482991E+01
   0.233000E+04  -0.105285E-04   0.674501E-05   0.367719E+00   0.482991E+01
   0.234000E+04  -0.105946E-04   0.677245E-05   0.367727E+00   0.482991E+01
   0.235000E+04  -0.106593E-04   0.679961E-05   0.367734E+00   0.482991E+01
   0.236000E+04  -0.107226E-04   0.682651E-05   0.367741E+00   0.482991E+01
   0.237000E+04  -0.107844E-04   0.685315E-05   0.367749E+00   0.482991E+01
   0.238000E+04  -0.108447E-04   0.687952E-05   0.367756E+00   0.482991E+01
   0.239000E+04  -0.109035E-04   0.690564E-05   0.367763E+00   0.482991E+01
   0.240000E+04  -0.109608E-04   0.693149E-05   0.367770E+00   0.482991E+01
   0.241000E+04  -0.110164E-04   0.695709E-05   0.367776E+00   0.482991E+01
   0.242000E+04  -0.110704E-04   0.698243E-05   0.367783E+00   0.482991E+01
   0.243000E+04  -0.111227E-04   0.700752E-05   0.367790E+00   0.482991E+01
   0.244000E+04  -0.111734E-04   0.703235E-05   0.367797E+00   0.482991E+01
   0.245000E+04  -0.112224E-04   0.705694E-05   0.367803E+00   0.482991E+01
   0.246000E+04  -0.112696E-04   0.708129E-05   0.367810E+00   0.482991E+01
   0.247000E+04  -0.113152E-04   0.710539E-05   0.367817E+00   0.482991E+01
   0.248000E+04  -0.113589E-04   0.712925E-05   0.367823E+00   0.482991E+01
   0.249000E+04  -0.114010E-04   0.715287E-05   0.367829E+00   0.482991E+01
   0.250000E+04  -0.114412E-04   0.717625E-05   0.367836E+00   0.482991E+01
   0.251000E+04  -0.114797E-04   0.719941E-05   0.367842E+00   0.482991E+01
   0.252000E+04  -0.115163E-04   0.722233E-05   0.367848E+00   0.482991E+01
   0.253000E+04  -0.115512E-04   0.724503E-05   0.367855E+00   0.482991E+01
   0.254000E+04  -0.115843E-04   0.726750E-05   0.367861E+00   0.482991E+01
   0.255000E+04  -0.116156E-04   0.728975E-05   0.367867E+00   0.482991E+01
   0.256000E+04  -0.116451E-04   0.731178E-05   0.367873E+00   0.482991E+01
   0.257000E+04  -0.116728E-04   0.733360E-05   0.367879E+00   0.482991E+01
   0.258000E+04  -0.116987E-04   0.735520E-05   0.367885E+00   0.482991E+01
   0.259000E+04  -0.117228E-04   0.737660E-05   0.367891E+00   0.482991E+01
   0.260000E+04  -0.117452E-04   0.739779E-05   0.367897E+00   0.482991E+01
   0.261000E+04  -0.117657E-04   0.741877E-05   0.367902E+00   0.482991E+01
   0.262000E+04  -0.117845E-04   0.743956E-05   0.367908E+00   0.482991E+01
   0.263000E+04  -0.118016E-04   0.746015E-05   0.367914E+00   0.482991E+01
   0.264000E+04  -0.118169E-04   0.748055E-05   0.367919E+00   0.482991E+01
   0.265000E+04  -0.118305E-04   0.750076E-05   0.367925E+00   0.482991E+01
   0.266000E+04  -0.118423E-04   0.752077E-05   0.367931E+00   0.482991E+01
   0.267000E+04  -0.118524E-04   0.754061E-05   0.367936E+00   0.482991E+01
   0.268000E+04  -0.118608E-04   0.756027E-05   0.367942E+00   0.482991E+01
   0.269000E+04  -0.118675E-04   0.757974E-05   0.367947E+00   0.482991E+01
   0.270000E+04  -0.118725E-04   0.759905E-05   0.367952E+00   0.482991E+01
   0.271000E+04  -0.118757E-04   0.761818E-05   0.367958E+00   0.482991E+01
   0.272000E+04  -0.118773E-04   0.763715E-05   0.367963E+00   0.482991E+01
   0.273000E+04  -0.118772E-04   0.765595E-05   0.367968E+00   0.482991E+01
   0.274000E+04  -0.118754E-04   0.767459E-05   0.367973E+00   0.482991E+01
   0.275000E+04  -0.118719E-04   0.769307E-05   0.367978E+00   0.482991E+01
   0.276000E+04  -0.118668E-04   0.771140E-05   0.367983E+00   0.482991E+01
   0.277000E+04  -0.118599E-04   0.772957E-05   0.367988E+00   0.482991E+01
   0.278000E+04  -0.118514E-04   0.774760E-05   0.367993E+00   0.482991E+01
   0.279000E+04  -0.118412E-04   0.776548E-05   0.367998E+00   0.482991E+01
   0.280000E+04  -0.118293E-04   0.778321E-05   0.368003E+00   0.482991E+01
   0.281000E+04  -0.118158E-04   0.780081E-05   0.368008E+00   0.482991E+01
   0.282000E+04  -0.118005E-04   0.781827E-05   0.368013E+00   0.482991E+01
   0.283000E+04  -0.117836E-04   0.783559E-05   0.368018E+00   0.482991E+01
   0.284000E+04  -0.117650E-04   0.785278E-05   0.368022E+00   0.482991E+01
   0.285000E+04  -0.117447E-04   0.786984E-05   0.368027E+00   0.482991E+01
   0.286000E+04  -0.117226E-04   0.788678E-05   0.368031E+00   0.482991E+01
   0.287000E+04  -0.116989E-04   0.790359E-05   0.368036E+00   0.482991E+01
   0.288000E+04  -0.116734E-04   0.792028E-05   0.368040E+00   0.482991E+01
   0.289000E+04  -0.116462E-04   0.793685E-05   0.368045E+00   0.482991E+01
   0.290000E+04  -0.116173E-04   0.795331E-05   0.368049E+00   0.482991E+01
   0.291000E+04  -0.115865E-04   0.796965E-05   0.368053E+00   0.482991E+01
   0.292000E+04  -0.115540E-04   0.798588E-05   0.368058E+00   0.482991E+01
   0.293000E+04  -0.115198E-04   0.800200E-05   0.368062E+00   0.482991E+01
   0.294000E+04  -0.114837E-04   0.801801E-05   0.368066E+00   0.482991E+01
   0.295000E+04  -0.114458E-04   0.803392E-05   0.368070E+00   0.482991E+01
   0.296000E+04  -0.114060E-04   0.804972E-05   0.368074E+00   0.482991E+01
   0.297000E+04  -0.113644E-04   0.806543E-05   0.368078E+00   0.482991E+01
   0.298000E+04  -0.113209E-04   0.808103E-05   0.368082E+00   0.482991E+01
   0.299000E+04  -0.112755E-04   0.809654E-05   0.368086E+00   0.482991E+01
   0.300000E+04  -0.112282E-04   0.811196E-05   0.368090E+00   0.482991E+01
   0.301000E+04  -0.111789E-04   0.812728E-05   0.368094E+00   0.482991E+01
   0.302000E+04  -0.111277E-04   0.814251E-05   0.368097E+00   0.482991E+01
   0.303000E+04  -0.110745E-04   0.815766E-05   0.368101E+00   0.482991E+01
   0.304000E+04  -0.110193E-04   0.817272E-05   0.368105E+00   0.482991E+01
   0.305000E+04  -0.109621E-04   0.818770E-05   0.368108E+00   0.482991E+01
   0.306000E+04  -0.109028E-04   0.820259E-05   0.368112E+00   0.482991E+01
   0.307000E+04  -0.108415E-04   0.821740E-05   0.368115E+00   0.482991E+01
   0.308000E+04  -0.107780E-04   0.823214E-05   0.368119E+00   0.482991E+01
   0.309000E+04  -0.107124E-04   0.824679E-05   0.368122E+00   0.482991E+01
   0.310000E+04  -0.106447E-04   0.826138E-05   0.368126E+00   0.482991E+01
   0.311000E+04  -0.105748E-04   0.827589E-05   0.368129E+00   0.482991E+01
   0.312000E+04  -0.105028E-04   0.829033E-05   0.368132E+00   0.482991E+01
   0.313000E+04  -0.104285E-04   0.830470E-05   0.368136E+00   0.482991E+01
   0.314000E+04  -0.103520E-04   0.831901E-05   0.368139E+00   0.482991E+01
   0.315000E+04  -0.102732E-04   0.833325E-05   0.368142E+00   0.482991E+01
   0.316000E+04  -0.101922E-04   0.834743E-05   0.368145E+00   0.482991E+01
   0.317000E+04  -0.101089E-04   0.836155E-05   0.368149E+00   0.482991E+01
   0.318000E+04  -0.100233E-04   0.837560E-05   0.368152E+00   0.482991E+01
   0.319000E+04  -0.993536E-05   0.838961E-05   0.368155E+00   0.482991E+01
   0.320000E+04  -0.984508E-05   0.840355E-05   0.368158E+00   0.482991E+01
   0.321000E+04  -0.975245E-05   0.841745E-05   0.368161E+00   0.482991E+01
   0.322000E+04  -0.965744E-05   0.843129E-05   0.368164E+00   0.482991E+01
   0.323000E+04  -0.956005E-05   0.844508E-05   0.368167E+00   0.482991E+01
   0.324000E+04  -0.946025E-05   0.845882E-05   0.368170E+00   0.482991E+01
   0.325000E+04  -0.935804E-05   0.847252E-05   0.368173E+00   0.482991E+01
   0.326000E+04  -0.925340E-05   0.848618E-05   0.368176E+00   0.482991E+01
   0.327000E+04  -0.914633E-05   0.849979E-05   0.368178E+00   0.482991E+01
   0.328000E+04  -0.903680E-05   0.851337E-05   0.368181E+00   0.482991E+01
   0.329000E+04  -0.892482E-05   0.852690E-05   0.368184E+00   0.482991E+01
   0.330000E+04  -0.881037E-05   0.854041E-05   0.368187E+00   0.482991E+01
   0.331000E+04  -0.869344E-05   0.855387E-05   0.368190E+00   0.482991E+01
   0.332000E+04  -0.857404E-05   0.856731E-05   0.368192E+00   0.482991E+01
   0.333000E+04  -0.845215E-05   0.858071E-05   0.368195E+00   0.482991E+01
   0.334000E+04  -0.832778E-05   0.859409E-05   0.368198E+00   0.482991E+01
   0.335000E+04  -0.820091E-05   0.860744E-05   0.368200E+00   0.482991E+01
   0.336000E+04  -0.807156E-05   0.862077E-05   0.368203E+00   0.482991E+01
   0.337000E+04  -0.793971E-05   0.863407E-05   0.368205E+00   0.482991E+01
   0.338000E+04  -0.780537E-05   0.864735E-05   0.368208E+00   0.482991E+01
   0.339000E+04  -0.766855E-05   0.866061E-05   0.368211E+00   0.482991E+01
   0.340000E+04  -0.752924E-05   0.867386E-05   0.368213E+00   0.482991E+01
   0.341000E+04  -0.738746E-05   0.868709E-05   0.368216E+00   0.482991E+01
   0.342000E+04  -0.724321E-05   0.870031E-05   0.368218E+00   0.482991E+01
   0.343000E+04  -0.709650E-05   0.871351E-05   0.368221E+00   0.482991E+01
   0.344000E+04  -0.694735E-05   0.872670E-05   0.368223E+00   0.482991E+01
   0.345000E+04  -0.679576E-05   0.873989E-05   0.368225E+00   0.482991E+01
   0.346000E+04  -0.664175E-05   0.875306E-05   0.368228E+00   0.482991E+01
   0.347000E+04  -0.648534E-05   0.876623E-05   0.368230E+00   0.482991E+01
   0.348000E+04  -0.632655E-05   0.877939E-05   0.368233E+00   0.482991E+01
   0.349000E+04  -0.616540E-05   0.879255E-05   0.368235E+00   0.482991E+01
   0.350000E+04  -0.600190E-05   0.880571E-05   0.368238E+00   0.482991E+01
   0.351000E+04  -0.583608E-05   0.881886E-05   0.368240E+00   0.482991E+01
   0.352000E+04  -0.566797E-05   0.883201E-05   0.368242E+00   0.482991E+01
   0.353000E+04  -0.549759E-05   0.884517E-05   0.368245E+00   0.482991E+01
   0.354000E+04  -0.532496E-05   0.885833E-05   0.368247E+00   0.482991E+01
   0.355000E+04  -0.515012E-05   0.887149E-05   0.368249E+00   0.482991E+01
   0.356000E+04  -0.497308E-05   0.888465E-05   0.368251E+00   0.482991E+01
   0.357000E+04  -0.479388E-05   0.889782E-05   0.368254E+00   0.482991E+01
   0.358000E+04  -0.461255E-05   0.891100E-05   0.368256E+00   0.482991E+01
   0.359000E+04  -0.442910E-05   0.892418E-05   0.368258E+00   0.482991E+01
   0.360000E+04  -0.424357E-05   0.893738E-05   0.368260E+00   0.482991E+01
   0.361000E+04  -0.405599E-05   0.895058E-05   0.368262E+00   0.482991E+01
   0.362000E+04  -0.386638E-05   0.896380E-05   0.368264E+00   0.482991E+01
   0.363000E+04  -0.367477E-05   0.897703E-05   0.368266E+00   0.482991E+01
   0.364000E+04  -0.348119E-05   0.899027E-05   0.368269E+00   0.482991E+01
   0.365000E+04  -0.328567E-05   0.900353E-05   0.368271E+00   0.482991E+01
   0.366000E+04  -0.308822E-05   0.901680E-05   0.368273E+00   0.482991E+01
   0.367000E+04  -0.288889E-05   0.903009E-05   0.368275E+00   0.482991E+01
   0.368000E+04  -0.268768E-05   0.904340E-05   0.368276E+00   0.482991E+01
   0.369000E+04  -0.248464E-05   0.905672E-05   0.368278E+00   0.482991E+01
   0.370000E+04  -0.227978E-05   0.907007E-05   0.368280E+00   0.482991E+01
   0.371000E+04  -0.207312E-05   0.908344E-05   0.368282E+00   0.482991E+01
   0.372000E+04  -0.186469E-05   0.909683E-05   0.368284E+00   0.482991E+01
   0.373000E+04  -0.165452E-05   0.911024E-05   0.368286E+00   0.482991E+01
   0.374000E+04  -0.144263E-05   0.912368E-05   0.368288E+00   0.482991E+01
   0.375000E+04  -0.122904E-05   0.913714E-05   0.368289E+00   0.482991E+01
   0.376000E+04  -0.101376E-05   0.915062E-05   0.368291E+00   0.482991E+01
   0.377000E+04  -0.796832E-06   0.916414E-05   0.368293E+00   0.482991E+01
   0.378000E+04  -0.578267E-06   0.917767E-05   0.368295E+00   0.482991E+01
   0.379000E+04  -0.358089E-06   0.919124E-05   0.368296E+00   0.482991E+01
   0.380000E+04  -0.136318E-06   0.920483E-05   0.368298E+00   0.482991E+01
   0.381000E+04   0.870226E-07   0.921845E-05   0.368300E+00   0.482991E+01
   0.382000E+04   0.311911E-06   0.923210E-05   0.368301E+00   0.482991E+01
   0.383000E+04   0.538325E-06   0.924578E-05   0.368303E+00   0.482991E+01
   0.384000E+04   0.766243E-06   0.925949E-05   0.368305E+00   0.482991E+01
   0.385000E+04   0.995640E-06   0.927323E-05   0.368306E+00   0.482991E+01
   0.386000E+04   0.122649E-05   0.928699E-05   0.368308E+00   0.482991E+01
   0.387000E+04   0.145878E-05   0.930079E-05   0.368310E+00   0.482991E+01
   0.388000E+04   0.169247E-05   0.931462E-05   0.368311E+00   0.482991E+01
   0.389000E+04   0.192755E-05   0.932849E-05   0.368313E+00   0.482991E+01
   0.390000E+04   0.216398E-05   0.934238E-05   0.368314E+00   0.482991E+01
   0.391000E+04   0.240174E-05   0.935631E-05   0.368316E+00   0.482991E+01
   0.392000E+04   0.264081E-05   0.937026E-05   0.368317E+00   0.482991E+01
   0.393000E+04   0.288115E-05   0.938426E-05   0.368319E+00   0.482991E+01