title="breakthrough data set at     5 wells"
variables="time(days)","cavg","cpk","upk","zswi"
zone i=     1295
   0.100000E+02   0.963445E-10   0.153361E-09   0.449368E+00   0.485488E+01
   0.200000E+02   0.254263E-09   0.409200E-09   0.360473E+00   0.482960E+01
   0.300000E+02   0.539135E-09   0.869944E-09   0.360342E+00   0.482960E+01
   0.400000E+02   0.102648E-08   0.165674E-08   0.360574E+00   0.482960E+01
   0.500000E+02   0.182705E-08   0.294699E-08   0.360782E+00   0.482960E+01
   0.600000E+02   0.309622E-08   0.498873E-08   0.360973E+00   0.482960E+01
   0.700000E+02   0.504212E-08   0.811266E-08   0.361157E+00   0.482960E+01
   0.800000E+02   0.793251E-08   0.127416E-07   0.361322E+00   0.482960E+01
   0.900000E+02   0.120988E-07   0.193953E-07   0.361476E+00   0.482960E+01
   0.100000E+03   0.179373E-07   0.286901E-07   0.361624E+00   0.482960E+01
   0.110000E+03   0.259076E-07   0.413342E-07   0.361764E+00   0.482960E+01
   0.120000E+03   0.365282E-07   0.581177E-07   0.361899E+00   0.482960E+01
   0.130000E+03   0.503916E-07   0.799342E-07   0.361895E+00   0.482960E+01
   0.140000E+03   0.680939E-07   0.107668E-06   0.362029E+00   0.482960E+01
   0.150000E+03   0.902430E-07   0.142205E-06   0.362280E+00   0.482960E+01
   0.160000E+03   0.117562E-06   0.184593E-06   0.362277E+00   0.482960E+01
   0.170000E+03   0.150687E-06   0.235728E-06   0.362395E+00   0.482960E+01
   0.180000E+03   0.190281E-06   0.296522E-06   0.362510E+00   0.482960E+01
   0.190000E+03   0.236985E-06   0.367844E-06   0.362620E+00   0.482960E+01
   0.200000E+03   0.291417E-06   0.450500E-06   0.362725E+00   0.482960E+01
   0.210000E+03   0.354157E-06   0.545224E-06   0.362826E+00   0.482960E+01
   0.220000E+03   0.425740E-06   0.652669E-06   0.362924E+00   0.482960E+01
   0.230000E+03   0.506650E-06   0.773393E-06   0.363018E+00   0.482960E+01
   0.240000E+03   0.597315E-06   0.907857E-06   0.363108E+00   0.482960E+01
   0.250000E+03   0.698103E-06   0.105642E-05   0.363195E+00   0.482960E+01
   0.260000E+03   0.809314E-06   0.121934E-05   0.363279E+00   0.482960E+01
   0.270000E+03   0.931186E-06   0.139675E-05   0.363360E+00   0.482960E+01
   0.280000E+03   0.106389E-05   0.158872E-05   0.363437E+00   0.482960E+01
   0.290000E+03   0.120752E-05   0.179518E-05   0.363512E+00   0.482960E+01
   0.300000E+03   0.136211E-05   0.201599E-05   0.363585E+00   0.482960E+01
   0.310000E+03   0.152764E-05   0.225088E-05   0.363655E+00   0.482960E+01
   0.320000E+03   0.170400E-05   0.249954E-05   0.363723E+00   0.482960E+01
   0.330000E+03   0.189104E-05   0.276155E-05   0.363788E+00   0.482960E+01
   0.340000E+03   0.208856E-05   0.303643E-05   0.363852E+00   0.482960E+01
   0.350000E+03   0.229618E-05   0.332348E-05   0.363971E+00   0.482960E+01
   0.360000E+03   0.251370E-05   0.362226E-05   0.364023E+00   0.482960E+01
   0.370000E+03   0.274078E-05   0.393213E-05   0.364072E+00   0.482960E+01
   0.380000E+03   0.297704E-05   0.425243E-05   0.364126E+00   0.482960E+01
   0.390000E+03   0.322205E-05   0.458245E-05   0.364179E+00   0.482960E+01
   0.400000E+03   0.347541E-05   0.492149E-05   0.364228E+00   0.482960E+01
   0.410000E+03   0.373665E-05   0.526884E-05   0.364274E+00   0.482960E+01
   0.420000E+03   0.400534E-05   0.562380E-05   0.364319E+00   0.482960E+01
   0.430000E+03   0.428101E-05   0.598569E-05   0.364366E+00   0.482960E+01
   0.440000E+03   0.456321E-05   0.635383E-05   0.364413E+00   0.482960E+01
   0.450000E+03   0.485148E-05   0.672757E-05   0.364457E+00   0.482960E+01
   0.460000E+03   0.514541E-05   0.710632E-05   0.364495E+00   0.482960E+01
   0.470000E+03   0.544457E-05   0.748948E-05   0.364534E+00   0.482960E+01
   0.480000E+03   0.574855E-05   0.787651E-05   0.364575E+00   0.482960E+01
   0.490000E+03   0.605695E-05   0.826689E-05   0.364616E+00   0.482960E+01
   0.500000E+03   0.636941E-05   0.866013E-05   0.364655E+00   0.482960E+01
   0.510000E+03   0.668559E-05   0.905579E-05   0.364687E+00   0.482960E+01
   0.520000E+03   0.700516E-05   0.945347E-05   0.364720E+00   0.482960E+01
   0.530000E+03   0.732781E-05   0.985277E-05   0.364754E+00   0.482960E+01
   0.540000E+03   0.765325E-05   0.102534E-04   0.364789E+00   0.482960E+01
   0.550000E+03   0.798123E-05   0.106549E-04   0.364824E+00   0.482960E+01
   0.560000E+03   0.831152E-05   0.110572E-04   0.364852E+00   0.482960E+01
   0.570000E+03   0.864389E-05   0.114599E-04   0.364879E+00   0.482960E+01
   0.580000E+03   0.897817E-05   0.118628E-04   0.364906E+00   0.482960E+01
   0.590000E+03   0.931417E-05   0.122658E-04   0.364936E+00   0.482960E+01
   0.600000E+03   0.965175E-05   0.126687E-04   0.364966E+00   0.482960E+01
   0.610000E+03   0.999078E-05   0.130714E-04   0.364990E+00   0.482960E+01
   0.620000E+03   0.103312E-04   0.134738E-04   0.365014E+00   0.482960E+01
   0.630000E+03   0.106728E-04   0.138758E-04   0.365035E+00   0.482960E+01
   0.640000E+03   0.110157E-04   0.142774E-04   0.365060E+00   0.482960E+01
   0.650000E+03   0.113597E-04   0.146785E-04   0.365085E+00   0.482960E+01
   0.660000E+03   0.117049E-04   0.150792E-04   0.365107E+00   0.482960E+01
   0.670000E+03   0.120512E-04   0.154793E-04   0.365127E+00   0.482960E+01
   0.680000E+03   0.123986E-04   0.158789E-04   0.365144E+00   0.482960E+01
   0.690000E+03   0.127471E-04   0.162780E-04   0.365163E+00   0.482960E+01
   0.700000E+03   0.130968E-04   0.166768E-04   0.365185E+00   0.482960E+01
   0.710000E+03   0.134477E-04   0.170751E-04   0.365206E+00   0.482960E+01
   0.720000E+03   0.137998E-04   0.174730E-04   0.365220E+00   0.482960E+01
   0.730000E+03   0.141533E-04   0.178707E-04   0.365236E+00   0.482960E+01
   0.740000E+03   0.145081E-04   0.182681E-04   0.365249E+00   0.482960E+01
   0.750000E+03   0.148643E-04   0.186654E-04   0.365266E+00   0.482960E+01
   0.760000E+03   0.152220E-04   0.190626E-04   0.365283E+00   0.482960E+01
   0.770000E+03   0.155813E-04   0.194598E-04   0.365300E+00   0.482960E+01
   0.780000E+03   0.159422E-04   0.198570E-04   0.365312E+00   0.482960E+01
   0.790000E+03   0.163047E-04   0.202543E-04   0.365323E+00   0.482960E+01
   0.800000E+03   0.166690E-04   0.206518E-04   0.365334E+00   0.482960E+01
   0.810000E+03   0.170349E-04   0.210495E-04   0.365350E+00   0.482960E+01
   0.820000E+03   0.174027E-04   0.214475E-04   0.365364E+00   0.482960E+01
   0.830000E+03   0.177722E-04   0.218459E-04   0.365375E+00   0.482960E+01
   0.840000E+03   0.181434E-04   0.222446E-04   0.365384E+00   0.482960E+01
   0.850000E+03   0.185165E-04   0.226437E-04   0.365391E+00   0.482960E+01
   0.860000E+03   0.188912E-04   0.230432E-04   0.365401E+00   0.482960E+01
   0.870000E+03   0.192675E-04   0.234432E-04   0.365414E+00   0.482960E+01
   0.880000E+03   0.196454E-04   0.238435E-04   0.365427E+00   0.482960E+01
   0.890000E+03   0.200247E-04   0.242443E-04   0.365434E+00   0.482960E+01
   0.900000E+03   0.204054E-04   0.246455E-04   0.365440E+00   0.482960E+01
   0.910000E+03   0.207873E-04   0.250472E-04   0.365444E+00   0.482960E+01
   0.920000E+03   0.211703E-04   0.254492E-04   0.365454E+00   0.482960E+01
   0.930000E+03   0.215542E-04   0.258517E-04   0.365464E+00   0.482960E+01
   0.940000E+03   0.219388E-04   0.262545E-04   0.365474E+00   0.482960E+01
   0.950000E+03   0.223240E-04   0.266578E-04   0.365478E+00   0.482960E+01
   0.960000E+03   0.227096E-04   0.270616E-04   0.365481E+00   0.482960E+01
   0.970000E+03   0.230954E-04   0.274657E-04   0.365486E+00   0.482960E+01
   0.980000E+03   0.234811E-04   0.278700E-04   0.365497E+00   0.482960E+01
   0.990000E+03   0.238664E-04   0.282746E-04   0.365504E+00   0.482960E+01
   0.100000E+04   0.242518E-04   0.286801E-04   0.365504E+00   0.482960E+01
   0.101000E+04   0.246384E-04   0.290885E-04   0.365502E+00   0.482960E+01
   0.102000E+04   0.250275E-04   0.295110E-04   0.365516E+00   0.482960E+01
   0.103000E+04   0.254205E-04   0.300181E-04   0.365532E+00   0.482960E+01
   0.104000E+04   0.258188E-04   0.305380E-04   0.365540E+00   0.482960E+01
   0.105000E+04   0.262238E-04   0.310737E-04   0.365542E+00   0.482960E+01
   0.106000E+04   0.266375E-04   0.316286E-04   0.365546E+00   0.482960E+01
   0.107000E+04   0.270619E-04   0.322063E-04   0.365556E+00   0.482960E+01
   0.108000E+04   0.274984E-04   0.328095E-04   0.365570E+00   0.482960E+01
   0.109000E+04   0.279480E-04   0.334397E-04   0.365577E+00   0.482960E+01
   0.110000E+04   0.284114E-04   0.340980E-04   0.365579E+00   0.482960E+01
   0.111000E+04   0.288898E-04   0.347855E-04   0.365581E+00   0.482960E+01
   0.112000E+04   0.293847E-04   0.355041E-04   0.365590E+00   0.482960E+01
   0.113000E+04   0.298967E-04   0.362549E-04   0.365605E+00   0.482960E+01
   0.114000E+04   0.304263E-04   0.370382E-04   0.365611E+00   0.482960E+01
   0.115000E+04   0.309735E-04   0.378535E-04   0.365610E+00   0.482960E+01
   0.116000E+04   0.315388E-04   0.387009E-04   0.365610E+00   0.482960E+01
   0.117000E+04   0.321231E-04   0.395810E-04   0.365620E+00   0.482960E+01
   0.118000E+04   0.327273E-04   0.404952E-04   0.365635E+00   0.482960E+01
   0.119000E+04   0.333512E-04   0.414433E-04   0.365641E+00   0.482960E+01
   0.120000E+04   0.339947E-04   0.424246E-04   0.365636E+00   0.482960E+01
   0.121000E+04   0.346582E-04   0.434389E-04   0.365633E+00   0.482960E+01
   0.122000E+04   0.353424E-04   0.444869E-04   0.365643E+00   0.482960E+01
   0.123000E+04   0.360484E-04   0.455701E-04   0.365660E+00   0.482960E+01
   0.124000E+04   0.367761E-04   0.466891E-04   0.365666E+00   0.482960E+01
   0.125000E+04   0.375254E-04   0.478434E-04   0.365659E+00   0.482960E+01
   0.126000E+04   0.382966E-04   0.490326E-04   0.365652E+00   0.482960E+01
   0.127000E+04   0.390906E-04   0.502576E-04   0.365663E+00   0.482960E+01
   0.128000E+04   0.399087E-04   0.515207E-04   0.365683E+00   0.482960E+01
   0.129000E+04   0.407509E-04   0.528224E-04   0.365690E+00   0.482960E+01
   0.130000E+04   0.416168E-04   0.541626E-04   0.365679E+00   0.482960E+01
   0.131000E+04   0.425070E-04   0.555405E-04   0.365670E+00   0.482960E+01
   0.132000E+04   0.434221E-04   0.569570E-04   0.365682E+00   0.482960E+01
   0.133000E+04   0.443634E-04   0.584141E-04   0.365706E+00   0.482960E+01
   0.134000E+04   0.453306E-04   0.599125E-04   0.365711E+00   0.482960E+01
   0.135000E+04   0.463232E-04   0.614512E-04   0.365699E+00   0.482960E+01
   0.136000E+04   0.473413E-04   0.630293E-04   0.365688E+00   0.482960E+01
   0.137000E+04   0.483854E-04   0.646464E-04   0.365702E+00   0.482960E+01
   0.138000E+04   0.494563E-04   0.663045E-04   0.365726E+00   0.482960E+01
   0.139000E+04   0.505534E-04   0.680035E-04   0.365732E+00   0.482960E+01
   0.140000E+04   0.516755E-04   0.697414E-04   0.365718E+00   0.482960E+01
   0.141000E+04   0.528224E-04   0.715166E-04   0.365704E+00   0.482960E+01
   0.142000E+04   0.539940E-04   0.733276E-04   0.365721E+00   0.482960E+01
   0.143000E+04   0.551909E-04   0.751758E-04   0.365745E+00   0.482960E+01
   0.144000E+04   0.564120E-04   0.770609E-04   0.365749E+00   0.482960E+01
   0.145000E+04   0.576556E-04   0.789797E-04   0.365733E+00   0.482960E+01
   0.146000E+04   0.589212E-04   0.809299E-04   0.365718E+00   0.482960E+01
   0.147000E+04   0.602080E-04   0.829092E-04   0.365737E+00   0.482960E+01
   0.148000E+04   0.615166E-04   0.849190E-04   0.365761E+00   0.482960E+01
   0.149000E+04   0.628457E-04   0.869587E-04   0.365764E+00   0.482960E+01
   0.150000E+04   0.641932E-04   0.890244E-04   0.365748E+00   0.482960E+01
   0.151000E+04   0.655585E-04   0.911139E-04   0.365732E+00   0.482960E+01
   0.152000E+04   0.669406E-04   0.932243E-04   0.365750E+00   0.482960E+01
   0.153000E+04   0.683402E-04   0.953576E-04   0.365774E+00   0.482960E+01
   0.154000E+04   0.697561E-04   0.975130E-04   0.365777E+00   0.482960E+01
   0.155000E+04   0.711857E-04   0.996867E-04   0.365760E+00   0.482960E+01
   0.156000E+04   0.726287E-04   0.101876E-03   0.365743E+00   0.482960E+01
   0.157000E+04   0.740842E-04   0.104080E-03   0.365762E+00   0.482960E+01
   0.158000E+04   0.755530E-04   0.106299E-03   0.365784E+00   0.482960E+01
   0.159000E+04   0.770341E-04   0.108533E-03   0.365786E+00   0.482960E+01
   0.160000E+04   0.785248E-04   0.110779E-03   0.365768E+00   0.482960E+01
   0.161000E+04   0.800249E-04   0.113035E-03   0.365752E+00   0.482960E+01
   0.162000E+04   0.815338E-04   0.115298E-03   0.365771E+00   0.482960E+01
   0.163000E+04   0.830525E-04   0.117572E-03   0.365792E+00   0.482960E+01
   0.164000E+04   0.845802E-04   0.119856E-03   0.365794E+00   0.482960E+01
   0.165000E+04   0.861142E-04   0.122146E-03   0.365778E+00   0.482960E+01
   0.166000E+04   0.876544E-04   0.124441E-03   0.365760E+00   0.482960E+01
   0.167000E+04   0.892006E-04   0.126739E-03   0.365779E+00   0.482960E+01
   0.168000E+04   0.907541E-04   0.129044E-03   0.365799E+00   0.482960E+01
   0.169000E+04   0.923140E-04   0.131356E-03   0.365801E+00   0.482960E+01
   0.170000E+04   0.938775E-04   0.133671E-03   0.365784E+00   0.482960E+01
   0.171000E+04   0.954450E-04   0.135987E-03   0.365767E+00   0.482960E+01
   0.172000E+04   0.970162E-04   0.138303E-03   0.365786E+00   0.482960E+01
   0.173000E+04   0.985927E-04   0.140623E-03   0.365805E+00   0.482960E+01
   0.174000E+04   0.100174E-03   0.142948E-03   0.365806E+00   0.482960E+01
   0.175000E+04   0.101756E-03   0.145272E-03   0.365790E+00   0.482960E+01
   0.176000E+04   0.103341E-03   0.147595E-03   0.365774E+00   0.482960E+01
   0.177000E+04   0.104927E-03   0.149916E-03   0.365791E+00   0.482960E+01
   0.178000E+04   0.106517E-03   0.152239E-03   0.365811E+00   0.482960E+01
   0.179000E+04   0.108110E-03   0.154564E-03   0.365812E+00   0.482960E+01
   0.180000E+04   0.109703E-03   0.156886E-03   0.365796E+00   0.482960E+01
   0.181000E+04   0.111296E-03   0.159205E-03   0.365781E+00   0.482960E+01
   0.182000E+04   0.112889E-03   0.161520E-03   0.365795E+00   0.482960E+01
   0.183000E+04   0.114485E-03   0.163835E-03   0.365815E+00   0.482960E+01
   0.184000E+04   0.116082E-03   0.166150E-03   0.365816E+00   0.482960E+01
   0.185000E+04   0.117677E-03   0.168459E-03   0.365799E+00   0.482960E+01
   0.186000E+04   0.119270E-03   0.170762E-03   0.365785E+00   0.482960E+01
   0.187000E+04   0.120863E-03   0.173061E-03   0.365798E+00   0.482960E+01
   0.188000E+04   0.122456E-03   0.175356E-03   0.365819E+00   0.482960E+01
   0.189000E+04   0.124048E-03   0.177649E-03   0.365820E+00   0.482960E+01
   0.190000E+04   0.125637E-03   0.179934E-03   0.365801E+00   0.482960E+01
   0.191000E+04   0.127223E-03   0.182210E-03   0.365789E+00   0.482960E+01
   0.192000E+04   0.128807E-03   0.184482E-03   0.365801E+00   0.482960E+01
   0.193000E+04   0.130390E-03   0.186747E-03   0.365823E+00   0.482960E+01
   0.194000E+04   0.131970E-03   0.189007E-03   0.365823E+00   0.482960E+01
   0.195000E+04   0.133546E-03   0.191258E-03   0.365800E+00   0.482960E+01
   0.196000E+04   0.135117E-03   0.193499E-03   0.365793E+00   0.482960E+01
   0.197000E+04   0.136687E-03   0.195734E-03   0.365803E+00   0.482960E+01
   0.198000E+04   0.138253E-03   0.197961E-03   0.365825E+00   0.482960E+01
   0.199000E+04   0.139816E-03   0.200181E-03   0.365824E+00   0.482960E+01
   0.200000E+04   0.141373E-03   0.202392E-03   0.365799E+00   0.482960E+01
   0.201000E+04   0.142924E-03   0.204591E-03   0.365796E+00   0.482960E+01
   0.202000E+04   0.144474E-03   0.206784E-03   0.365807E+00   0.482960E+01
   0.203000E+04   0.146020E-03   0.208970E-03   0.365829E+00   0.482960E+01
   0.204000E+04   0.147561E-03   0.211146E-03   0.365825E+00   0.482960E+01
   0.205000E+04   0.149096E-03   0.213313E-03   0.365797E+00   0.482960E+01
   0.206000E+04   0.150626E-03   0.215470E-03   0.365796E+00   0.482960E+01
   0.207000E+04   0.152154E-03   0.217681E-03   0.365811E+00   0.482960E+01
   0.208000E+04   0.153677E-03   0.220279E-03   0.365831E+00   0.482960E+01
   0.209000E+04   0.155194E-03   0.222873E-03   0.365823E+00   0.482960E+01
   0.210000E+04   0.156705E-03   0.225464E-03   0.365794E+00   0.482960E+01
   0.211000E+04   0.158212E-03   0.228049E-03   0.365796E+00   0.482960E+01
   0.212000E+04   0.159715E-03   0.230626E-03   0.365816E+00   0.482960E+01
   0.213000E+04   0.161214E-03   0.233196E-03   0.365833E+00   0.482960E+01
   0.214000E+04   0.162706E-03   0.235762E-03   0.365820E+00   0.482960E+01
   0.215000E+04   0.164192E-03   0.238323E-03   0.365791E+00   0.482960E+01
   0.216000E+04   0.165674E-03   0.240876E-03   0.365795E+00   0.482960E+01
   0.217000E+04   0.167153E-03   0.243419E-03   0.365819E+00   0.482960E+01
   0.218000E+04   0.168627E-03   0.245956E-03   0.365835E+00   0.482960E+01
   0.219000E+04   0.170094E-03   0.248488E-03   0.365818E+00   0.482960E+01
   0.220000E+04   0.171555E-03   0.251013E-03   0.365790E+00   0.482960E+01
   0.221000E+04   0.173013E-03   0.253529E-03   0.365795E+00   0.482960E+01
   0.222000E+04   0.174467E-03   0.256034E-03   0.365822E+00   0.482960E+01
   0.223000E+04   0.175915E-03   0.258533E-03   0.365836E+00   0.482960E+01
   0.224000E+04   0.177357E-03   0.261025E-03   0.365814E+00   0.482960E+01
   0.225000E+04   0.178793E-03   0.263509E-03   0.365787E+00   0.482960E+01
   0.226000E+04   0.180224E-03   0.265983E-03   0.365794E+00   0.482960E+01
   0.227000E+04   0.181650E-03   0.268446E-03   0.365827E+00   0.482960E+01
   0.228000E+04   0.183070E-03   0.270901E-03   0.365837E+00   0.482960E+01
   0.229000E+04   0.184483E-03   0.273349E-03   0.365808E+00   0.482960E+01
   0.230000E+04   0.185890E-03   0.275787E-03   0.365786E+00   0.482960E+01
   0.231000E+04   0.187292E-03   0.278214E-03   0.365796E+00   0.482960E+01
   0.232000E+04   0.188688E-03   0.280630E-03   0.365830E+00   0.482960E+01
   0.233000E+04   0.190077E-03   0.283036E-03   0.365835E+00   0.482960E+01
   0.234000E+04   0.191460E-03   0.285436E-03   0.365801E+00   0.482960E+01
   0.235000E+04   0.192836E-03   0.287825E-03   0.365786E+00   0.482960E+01
   0.236000E+04   0.194207E-03   0.290203E-03   0.365801E+00   0.482960E+01
   0.237000E+04   0.195572E-03   0.292568E-03   0.365835E+00   0.482960E+01
   0.238000E+04   0.196929E-03   0.294926E-03   0.365834E+00   0.482960E+01
   0.239000E+04   0.198281E-03   0.297277E-03   0.365793E+00   0.482960E+01
   0.240000E+04   0.199627E-03   0.299616E-03   0.365786E+00   0.482960E+01
   0.241000E+04   0.200967E-03   0.301944E-03   0.365808E+00   0.482960E+01
   0.242000E+04   0.202301E-03   0.304261E-03   0.365838E+00   0.482960E+01
   0.243000E+04   0.203627E-03   0.306569E-03   0.365828E+00   0.482960E+01
   0.244000E+04   0.204948E-03   0.308871E-03   0.365785E+00   0.482960E+01
   0.245000E+04   0.206261E-03   0.311160E-03   0.365786E+00   0.482960E+01
   0.246000E+04   0.207569E-03   0.313436E-03   0.365816E+00   0.482960E+01
   0.247000E+04   0.208871E-03   0.315702E-03   0.365840E+00   0.482960E+01
   0.248000E+04   0.210164E-03   0.317959E-03   0.365820E+00   0.482960E+01
   0.249000E+04   0.211452E-03   0.320207E-03   0.365780E+00   0.482960E+01
   0.250000E+04   0.212733E-03   0.322441E-03   0.365786E+00   0.482960E+01
   0.251000E+04   0.214007E-03   0.324661E-03   0.365823E+00   0.482960E+01
   0.252000E+04   0.215275E-03   0.326870E-03   0.365841E+00   0.482960E+01
   0.253000E+04   0.216534E-03   0.329069E-03   0.365813E+00   0.482960E+01
   0.254000E+04   0.217788E-03   0.331256E-03   0.365777E+00   0.482960E+01
   0.255000E+04   0.219034E-03   0.333429E-03   0.365787E+00   0.482960E+01
   0.256000E+04   0.220272E-03   0.335584E-03   0.365829E+00   0.482960E+01
   0.257000E+04   0.221504E-03   0.337728E-03   0.365841E+00   0.482960E+01
   0.258000E+04   0.222728E-03   0.339862E-03   0.365802E+00   0.482960E+01
   0.259000E+04   0.223944E-03   0.341981E-03   0.365776E+00   0.482960E+01
   0.260000E+04   0.225153E-03   0.344083E-03   0.365792E+00   0.482960E+01
   0.261000E+04   0.226354E-03   0.346168E-03   0.365834E+00   0.482960E+01
   0.262000E+04   0.227547E-03   0.348240E-03   0.365838E+00   0.482960E+01
   0.263000E+04   0.228733E-03   0.350302E-03   0.365790E+00   0.482960E+01
   0.264000E+04   0.229911E-03   0.352347E-03   0.365776E+00   0.482960E+01
   0.265000E+04   0.231082E-03   0.354375E-03   0.365800E+00   0.482960E+01
   0.266000E+04   0.232244E-03   0.356386E-03   0.365838E+00   0.482960E+01
   0.267000E+04   0.233399E-03   0.358386E-03   0.365832E+00   0.482960E+01
   0.268000E+04   0.234549E-03   0.360375E-03   0.365780E+00   0.482960E+01
   0.269000E+04   0.235689E-03   0.362346E-03   0.365778E+00   0.482960E+01
   0.270000E+04   0.236822E-03   0.364301E-03   0.365810E+00   0.482960E+01
   0.271000E+04   0.237947E-03   0.366241E-03   0.365841E+00   0.482960E+01
   0.272000E+04   0.239064E-03   0.368169E-03   0.365822E+00   0.482960E+01
   0.273000E+04   0.240175E-03   0.370085E-03   0.365773E+00   0.482960E+01
   0.274000E+04   0.241277E-03   0.371984E-03   0.365779E+00   0.482960E+01
   0.275000E+04   0.242370E-03   0.373865E-03   0.365819E+00   0.482960E+01
   0.276000E+04   0.243457E-03   0.375733E-03   0.365843E+00   0.482960E+01
   0.277000E+04   0.244536E-03   0.377588E-03   0.365809E+00   0.482960E+01
   0.278000E+04   0.245608E-03   0.379431E-03   0.365769E+00   0.482960E+01
   0.279000E+04   0.246671E-03   0.381255E-03   0.365782E+00   0.482960E+01
   0.280000E+04   0.247726E-03   0.383061E-03   0.365827E+00   0.482960E+01
   0.281000E+04   0.248775E-03   0.384855E-03   0.365841E+00   0.482960E+01
   0.282000E+04   0.249818E-03   0.386638E-03   0.365797E+00   0.482960E+01
   0.283000E+04   0.250852E-03   0.388406E-03   0.365768E+00   0.482960E+01
   0.284000E+04   0.251880E-03   0.390156E-03   0.365787E+00   0.482960E+01
   0.285000E+04   0.252899E-03   0.391890E-03   0.365832E+00   0.482960E+01
   0.286000E+04   0.253913E-03   0.393613E-03   0.365837E+00   0.482960E+01
   0.287000E+04   0.254923E-03   0.395325E-03   0.365785E+00   0.482960E+01
   0.288000E+04   0.255924E-03   0.397023E-03   0.365769E+00   0.482960E+01
   0.289000E+04   0.256918E-03   0.398705E-03   0.365795E+00   0.482960E+01
   0.290000E+04   0.257907E-03   0.400374E-03   0.365837E+00   0.482960E+01
   0.291000E+04   0.258891E-03   0.402033E-03   0.365827E+00   0.482960E+01
   0.292000E+04   0.259872E-03   0.403685E-03   0.365774E+00   0.482960E+01
   0.293000E+04   0.260844E-03   0.405323E-03   0.365771E+00   0.482960E+01
   0.294000E+04   0.261811E-03   0.406948E-03   0.365805E+00   0.482960E+01
   0.295000E+04   0.262774E-03   0.408562E-03   0.365839E+00   0.482960E+01
   0.296000E+04   0.263731E-03   0.410169E-03   0.365815E+00   0.482960E+01
   0.297000E+04   0.264684E-03   0.411769E-03   0.365765E+00   0.482960E+01
   0.298000E+04   0.265629E-03   0.413356E-03   0.365774E+00   0.482960E+01
   0.299000E+04   0.266568E-03   0.414930E-03   0.365816E+00   0.482960E+01
   0.300000E+04   0.267504E-03   0.416495E-03   0.365839E+00   0.482960E+01
   0.301000E+04   0.268434E-03   0.418054E-03   0.365801E+00   0.482960E+01
   0.302000E+04   0.269358E-03   0.419604E-03   0.365760E+00   0.482960E+01
   0.303000E+04   0.270275E-03   0.421141E-03   0.365778E+00   0.482960E+01
   0.304000E+04   0.271186E-03   0.422664E-03   0.365824E+00   0.482960E+01
   0.305000E+04   0.272095E-03   0.424180E-03   0.365836E+00   0.482960E+01
   0.306000E+04   0.273000E-03   0.425690E-03   0.365789E+00   0.482960E+01
   0.307000E+04   0.273897E-03   0.427189E-03   0.365760E+00   0.482960E+01
   0.308000E+04   0.274789E-03   0.428675E-03   0.365782E+00   0.482960E+01
   0.309000E+04   0.275676E-03   0.430149E-03   0.365829E+00   0.482960E+01
   0.310000E+04   0.276561E-03   0.431617E-03   0.365828E+00   0.482960E+01
   0.311000E+04   0.277443E-03   0.433080E-03   0.365775E+00   0.482960E+01
   0.312000E+04   0.278318E-03   0.434531E-03   0.365763E+00   0.482960E+01
   0.313000E+04   0.279189E-03   0.435971E-03   0.365791E+00   0.482960E+01
   0.314000E+04   0.280057E-03   0.437403E-03   0.365832E+00   0.482960E+01
   0.315000E+04   0.280923E-03   0.438830E-03   0.365818E+00   0.482960E+01
   0.316000E+04   0.281788E-03   0.440254E-03   0.365764E+00   0.482960E+01
   0.317000E+04   0.282645E-03   0.441667E-03   0.365766E+00   0.482960E+01
   0.318000E+04   0.283499E-03   0.443071E-03   0.365802E+00   0.482960E+01
   0.319000E+04   0.284351E-03   0.444470E-03   0.365833E+00   0.482960E+01
   0.320000E+04   0.285200E-03   0.445865E-03   0.365804E+00   0.482960E+01
   0.321000E+04   0.286046E-03   0.447257E-03   0.365756E+00   0.482960E+01
   0.322000E+04   0.286885E-03   0.448638E-03   0.365770E+00   0.482960E+01
   0.323000E+04   0.287718E-03   0.450010E-03   0.365813E+00   0.482960E+01
   0.324000E+04   0.288552E-03   0.451377E-03   0.365831E+00   0.482960E+01
   0.325000E+04   0.289380E-03   0.452741E-03   0.365790E+00   0.482960E+01
   0.326000E+04   0.290204E-03   0.454098E-03   0.365754E+00   0.482960E+01
   0.327000E+04   0.291020E-03   0.455444E-03   0.365774E+00   0.482960E+01
   0.328000E+04   0.291831E-03   0.456779E-03   0.365820E+00   0.482960E+01
   0.329000E+04   0.292642E-03   0.458110E-03   0.365825E+00   0.482960E+01
   0.330000E+04   0.293450E-03   0.459436E-03   0.365778E+00   0.482960E+01
   0.331000E+04   0.294250E-03   0.460753E-03   0.365756E+00   0.482960E+01
   0.332000E+04   0.295045E-03   0.462059E-03   0.365779E+00   0.482960E+01
   0.333000E+04   0.295837E-03   0.463355E-03   0.365824E+00   0.482960E+01
   0.334000E+04   0.296628E-03   0.464647E-03   0.365818E+00   0.482960E+01
   0.335000E+04   0.297418E-03   0.465935E-03   0.365765E+00   0.482960E+01
   0.336000E+04   0.298199E-03   0.467214E-03   0.365760E+00   0.482960E+01
   0.337000E+04   0.298977E-03   0.468483E-03   0.365789E+00   0.482960E+01
   0.338000E+04   0.299754E-03   0.469746E-03   0.365826E+00   0.482960E+01
   0.339000E+04   0.300530E-03   0.471006E-03   0.365807E+00   0.482960E+01
   0.340000E+04   0.301305E-03   0.472264E-03   0.365756E+00   0.482960E+01
   0.341000E+04   0.302071E-03   0.473513E-03   0.365764E+00   0.482960E+01
   0.342000E+04   0.302834E-03   0.474753E-03   0.365801E+00   0.482960E+01
   0.343000E+04   0.303598E-03   0.475989E-03   0.365825E+00   0.482960E+01
   0.344000E+04   0.304358E-03   0.477224E-03   0.365793E+00   0.482960E+01
   0.345000E+04   0.305113E-03   0.478454E-03   0.365752E+00   0.482960E+01
   0.346000E+04   0.305860E-03   0.479674E-03   0.365768E+00   0.482960E+01
   0.347000E+04   0.306602E-03   0.480885E-03   0.365811E+00   0.482960E+01
   0.348000E+04   0.307345E-03   0.482091E-03   0.365822E+00   0.482960E+01
   0.349000E+04   0.308082E-03   0.483294E-03   0.365781E+00   0.482960E+01
   0.350000E+04   0.308811E-03   0.484488E-03   0.365752E+00   0.482960E+01
   0.351000E+04   0.309534E-03   0.485671E-03   0.365772E+00   0.482960E+01
   0.352000E+04   0.310252E-03   0.486843E-03   0.365817E+00   0.482960E+01
   0.353000E+04   0.310970E-03   0.488009E-03   0.365817E+00   0.482960E+01
   0.354000E+04   0.311683E-03   0.489171E-03   0.365769E+00   0.482960E+01
   0.355000E+04   0.312388E-03   0.490323E-03   0.365755E+00   0.482960E+01
   0.356000E+04   0.313088E-03   0.491463E-03   0.365780E+00   0.482960E+01
   0.357000E+04   0.313786E-03   0.492593E-03   0.365818E+00   0.482960E+01
   0.358000E+04   0.314482E-03   0.493719E-03   0.365808E+00   0.482960E+01
   0.359000E+04   0.315176E-03   0.494841E-03   0.365759E+00   0.482960E+01
   0.360000E+04   0.315861E-03   0.495953E-03   0.365759E+00   0.482960E+01
   0.361000E+04   0.316543E-03   0.497055E-03   0.365790E+00   0.482960E+01
   0.362000E+04   0.317225E-03   0.498150E-03   0.365819E+00   0.482960E+01
   0.363000E+04   0.317904E-03   0.499243E-03   0.365797E+00   0.482960E+01
   0.364000E+04   0.318581E-03   0.500333E-03   0.365753E+00   0.482960E+01
   0.365000E+04   0.319249E-03   0.501412E-03   0.365764E+00   0.482960E+01
   0.366000E+04   0.319912E-03   0.502482E-03   0.365802E+00   0.482960E+01
   0.367000E+04   0.320577E-03   0.503548E-03   0.365819E+00   0.482960E+01
   0.368000E+04   0.321235E-03   0.504609E-03   0.365784E+00   0.482960E+01
   0.369000E+04   0.321886E-03   0.505664E-03   0.365749E+00   0.482960E+01
   0.370000E+04   0.322528E-03   0.506707E-03   0.365767E+00   0.482960E+01
   0.371000E+04   0.323166E-03   0.507739E-03   0.365809E+00   0.482960E+01
   0.372000E+04   0.323803E-03   0.508765E-03   0.365815E+00   0.482960E+01
   0.373000E+04   0.324434E-03   0.509785E-03   0.365773E+00   0.482960E+01
   0.374000E+04   0.325057E-03   0.510795E-03   0.365752E+00   0.482960E+01
   0.375000E+04   0.325672E-03   0.511792E-03   0.365773E+00   0.482960E+01
   0.376000E+04   0.326284E-03   0.512776E-03   0.365812E+00   0.482960E+01
   0.377000E+04   0.326895E-03   0.513755E-03   0.365809E+00   0.482960E+01
   0.378000E+04   0.327501E-03   0.514728E-03   0.365763E+00   0.482960E+01
   0.379000E+04   0.328097E-03   0.515689E-03   0.365755E+00   0.482960E+01
   0.380000E+04   0.328690E-03   0.516638E-03   0.365781E+00   0.482960E+01
   0.381000E+04   0.329283E-03   0.517578E-03   0.365813E+00   0.482960E+01
   0.382000E+04   0.329873E-03   0.518515E-03   0.365800E+00   0.482960E+01
   0.383000E+04   0.330461E-03   0.519447E-03   0.365755E+00   0.482960E+01
   0.384000E+04   0.331040E-03   0.520369E-03   0.365760E+00   0.482960E+01
   0.385000E+04   0.331615E-03   0.521280E-03   0.365793E+00   0.482960E+01
   0.386000E+04   0.332192E-03   0.522186E-03   0.365815E+00   0.482960E+01
   0.387000E+04   0.332764E-03   0.523089E-03   0.365788E+00   0.482960E+01
   0.388000E+04   0.333330E-03   0.523987E-03   0.365750E+00   0.482960E+01
   0.389000E+04   0.333888E-03   0.524874E-03   0.365764E+00   0.482960E+01
   0.390000E+04   0.334441E-03   0.525749E-03   0.365800E+00   0.482960E+01
   0.391000E+04   0.334995E-03   0.526620E-03   0.365813E+00   0.482960E+01
   0.392000E+04   0.335542E-03   0.527486E-03   0.365777E+00   0.482960E+01
   0.393000E+04   0.336080E-03   0.528343E-03   0.365750E+00   0.482960E+01