title="breakthrough data set at     5 wells"
variables="time(days)","cavg","cpk","upk","zswi"
zone i=     1295
   0.100000E+02   0.300221E-11   0.388210E-11   0.472401E+00   0.486789E+01
   0.200000E+02   0.106517E-10   0.133749E-10   0.393735E+00   0.484568E+01
   0.300000E+02   0.273045E-10   0.346926E-10   0.393527E+00   0.484568E+01
   0.400000E+02   0.598835E-10   0.759543E-10   0.393637E+00   0.484568E+01
   0.500000E+02   0.119043E-09   0.149727E-09   0.393747E+00   0.484568E+01
   0.600000E+02   0.220454E-09   0.280321E-09   0.393850E+00   0.484568E+01
   0.700000E+02   0.386223E-09   0.509471E-09   0.393951E+00   0.484568E+01
   0.800000E+02   0.646379E-09   0.882992E-09   0.394056E+00   0.484568E+01
   0.900000E+02   0.104048E-08   0.146737E-08   0.394141E+00   0.484568E+01
   0.100000E+03   0.161894E-08   0.234806E-08   0.394219E+00   0.484568E+01
   0.110000E+03   0.244420E-08   0.363104E-08   0.394291E+00   0.484568E+01
   0.120000E+03   0.359161E-08   0.544330E-08   0.394355E+00   0.484568E+01
   0.130000E+03   0.514989E-08   0.793250E-08   0.394414E+00   0.484568E+01
   0.140000E+03   0.722359E-08   0.112745E-07   0.394404E+00   0.484568E+01
   0.150000E+03   0.992577E-08   0.156453E-07   0.394468E+00   0.484568E+01
   0.160000E+03   0.133841E-07   0.212429E-07   0.394523E+00   0.484568E+01
   0.170000E+03   0.177380E-07   0.282768E-07   0.394571E+00   0.484568E+01
   0.180000E+03   0.231369E-07   0.369636E-07   0.394614E+00   0.484568E+01
   0.190000E+03   0.297385E-07   0.475216E-07   0.394652E+00   0.484568E+01
   0.200000E+03   0.377062E-07   0.601634E-07   0.394688E+00   0.484568E+01
   0.210000E+03   0.472055E-07   0.750882E-07   0.394719E+00   0.484568E+01
   0.220000E+03   0.584015E-07   0.924736E-07   0.394749E+00   0.484568E+01
   0.230000E+03   0.714556E-07   0.112471E-06   0.394776E+00   0.484568E+01
   0.240000E+03   0.865243E-07   0.135205E-06   0.394801E+00   0.484568E+01
   0.250000E+03   0.103758E-06   0.160771E-06   0.394825E+00   0.484568E+01
   0.260000E+03   0.123298E-06   0.189243E-06   0.394847E+00   0.484568E+01
   0.270000E+03   0.145281E-06   0.220672E-06   0.394868E+00   0.484568E+01
   0.280000E+03   0.169828E-06   0.255089E-06   0.394888E+00   0.484568E+01
   0.290000E+03   0.197051E-06   0.292490E-06   0.394907E+00   0.484568E+01
   0.300000E+03   0.227040E-06   0.332834E-06   0.394926E+00   0.484568E+01
   0.310000E+03   0.259862E-06   0.376023E-06   0.394944E+00   0.484568E+01
   0.320000E+03   0.295555E-06   0.421886E-06   0.394961E+00   0.484568E+01
   0.330000E+03   0.334121E-06   0.470162E-06   0.394978E+00   0.484568E+01
   0.340000E+03   0.375527E-06   0.520496E-06   0.394995E+00   0.484568E+01
   0.350000E+03   0.419701E-06   0.572430E-06   0.395012E+00   0.484568E+01
   0.360000E+03   0.466535E-06   0.625419E-06   0.395028E+00   0.484568E+01
   0.370000E+03   0.515893E-06   0.678847E-06   0.395044E+00   0.484568E+01
   0.380000E+03   0.567619E-06   0.732067E-06   0.395060E+00   0.484568E+01
   0.390000E+03   0.621549E-06   0.791799E-06   0.395076E+00   0.484568E+01
   0.400000E+03   0.677518E-06   0.857295E-06   0.395092E+00   0.484568E+01
   0.410000E+03   0.735374E-06   0.933581E-06   0.395107E+00   0.484568E+01
   0.420000E+03   0.794974E-06   0.101865E-05   0.395122E+00   0.484568E+01
   0.430000E+03   0.856194E-06   0.110751E-05   0.395137E+00   0.484568E+01
   0.440000E+03   0.918917E-06   0.120005E-05   0.395151E+00   0.484568E+01
   0.450000E+03   0.983036E-06   0.129613E-05   0.395166E+00   0.484568E+01
   0.460000E+03   0.104844E-05   0.139563E-05   0.395180E+00   0.484568E+01
   0.470000E+03   0.111503E-05   0.149838E-05   0.395194E+00   0.484568E+01
   0.480000E+03   0.118266E-05   0.160423E-05   0.395208E+00   0.484568E+01
   0.490000E+03   0.125119E-05   0.171301E-05   0.395222E+00   0.484568E+01
   0.500000E+03   0.132046E-05   0.182452E-05   0.395236E+00   0.484568E+01
   0.510000E+03   0.139029E-05   0.193859E-05   0.395249E+00   0.484568E+01
   0.520000E+03   0.146044E-05   0.205501E-05   0.395263E+00   0.484568E+01
   0.530000E+03   0.153070E-05   0.217358E-05   0.395276E+00   0.484568E+01
   0.540000E+03   0.160082E-05   0.229411E-05   0.395289E+00   0.484568E+01
   0.550000E+03   0.167054E-05   0.241638E-05   0.395303E+00   0.484568E+01
   0.560000E+03   0.173963E-05   0.254021E-05   0.395316E+00   0.484568E+01
   0.570000E+03   0.180785E-05   0.266540E-05   0.395328E+00   0.484568E+01
   0.580000E+03   0.187500E-05   0.279175E-05   0.395341E+00   0.484568E+01
   0.590000E+03   0.194093E-05   0.291908E-05   0.395354E+00   0.484568E+01
   0.600000E+03   0.200552E-05   0.304723E-05   0.395366E+00   0.484568E+01
   0.610000E+03   0.206870E-05   0.317604E-05   0.395378E+00   0.484568E+01
   0.620000E+03   0.213048E-05   0.330534E-05   0.395390E+00   0.484568E+01
   0.630000E+03   0.219088E-05   0.343498E-05   0.395402E+00   0.484568E+01
   0.640000E+03   0.224999E-05   0.356484E-05   0.395414E+00   0.484568E+01
   0.650000E+03   0.230792E-05   0.369476E-05   0.395426E+00   0.484568E+01
   0.660000E+03   0.236483E-05   0.382461E-05   0.395437E+00   0.484568E+01
   0.670000E+03   0.242086E-05   0.395427E-05   0.395449E+00   0.484568E+01
   0.680000E+03   0.247619E-05   0.408359E-05   0.395460E+00   0.484568E+01
   0.690000E+03   0.253099E-05   0.421246E-05   0.395471E+00   0.484568E+01
   0.700000E+03   0.258542E-05   0.434075E-05   0.395482E+00   0.484568E+01
   0.710000E+03   0.263963E-05   0.446835E-05   0.395493E+00   0.484568E+01
   0.720000E+03   0.269376E-05   0.459514E-05   0.395504E+00   0.484568E+01
   0.730000E+03   0.274793E-05   0.472100E-05   0.395515E+00   0.484568E+01
   0.740000E+03   0.280222E-05   0.484583E-05   0.395525E+00   0.484568E+01
   0.750000E+03   0.285669E-05   0.496951E-05   0.395536E+00   0.484568E+01
   0.760000E+03   0.291134E-05   0.509193E-05   0.395546E+00   0.484568E+01
   0.770000E+03   0.296617E-05   0.521299E-05   0.395556E+00   0.484568E+01
   0.780000E+03   0.302112E-05   0.533257E-05   0.395566E+00   0.484568E+01
   0.790000E+03   0.307607E-05   0.546834E-05   0.395577E+00   0.484568E+01
   0.800000E+03   0.313090E-05   0.563431E-05   0.395587E+00   0.484568E+01
   0.810000E+03   0.318542E-05   0.580055E-05   0.395597E+00   0.484568E+01
   0.820000E+03   0.323942E-05   0.596697E-05   0.395607E+00   0.484568E+01
   0.830000E+03   0.329263E-05   0.613344E-05   0.395616E+00   0.484568E+01
   0.840000E+03   0.334479E-05   0.629987E-05   0.395626E+00   0.484568E+01
   0.850000E+03   0.339560E-05   0.646615E-05   0.395636E+00   0.484568E+01
   0.860000E+03   0.344472E-05   0.663219E-05   0.395646E+00   0.484568E+01
   0.870000E+03   0.349183E-05   0.679789E-05   0.395655E+00   0.484568E+01
   0.880000E+03   0.353658E-05   0.696316E-05   0.395665E+00   0.484568E+01
   0.890000E+03   0.357867E-05   0.712792E-05   0.395675E+00   0.484568E+01
   0.900000E+03   0.361779E-05   0.729208E-05   0.395684E+00   0.484568E+01
   0.910000E+03   0.365364E-05   0.745556E-05   0.395694E+00   0.484568E+01
   0.920000E+03   0.368600E-05   0.761828E-05   0.395703E+00   0.484568E+01
   0.930000E+03   0.371467E-05   0.778016E-05   0.395712E+00   0.484568E+01
   0.940000E+03   0.373951E-05   0.794114E-05   0.395721E+00   0.484568E+01
   0.950000E+03   0.376048E-05   0.810113E-05   0.395730E+00   0.484568E+01
   0.960000E+03   0.377759E-05   0.826008E-05   0.395739E+00   0.484568E+01
   0.970000E+03   0.379091E-05   0.841792E-05   0.395748E+00   0.484568E+01
   0.980000E+03   0.380061E-05   0.857457E-05   0.395757E+00   0.484568E+01
   0.990000E+03   0.380694E-05   0.872999E-05   0.395765E+00   0.484568E+01
   0.100000E+04   0.381019E-05   0.888410E-05   0.395774E+00   0.484568E+01
   0.101000E+04   0.381067E-05   0.903686E-05   0.395783E+00   0.484568E+01
   0.102000E+04   0.380872E-05   0.918821E-05   0.395791E+00   0.484568E+01
   0.103000E+04   0.380465E-05   0.933808E-05   0.395799E+00   0.484568E+01
   0.104000E+04   0.379882E-05   0.948643E-05   0.395807E+00   0.484568E+01
   0.105000E+04   0.379154E-05   0.963323E-05   0.395816E+00   0.484568E+01
   0.106000E+04   0.378309E-05   0.977841E-05   0.395824E+00   0.484568E+01
   0.107000E+04   0.377370E-05   0.992194E-05   0.395832E+00   0.484568E+01
   0.108000E+04   0.376358E-05   0.100638E-04   0.395839E+00   0.484568E+01
   0.109000E+04   0.375298E-05   0.102039E-04   0.395846E+00   0.484568E+01
   0.110000E+04   0.374212E-05   0.103422E-04   0.395854E+00   0.484568E+01
   0.111000E+04   0.373118E-05   0.104788E-04   0.395862E+00   0.484568E+01
   0.112000E+04   0.372027E-05   0.106136E-04   0.395869E+00   0.484568E+01
   0.113000E+04   0.370953E-05   0.107465E-04   0.395875E+00   0.484568E+01
   0.114000E+04   0.369913E-05   0.108776E-04   0.395882E+00   0.484568E+01
   0.115000E+04   0.368924E-05   0.110069E-04   0.395889E+00   0.484568E+01
   0.116000E+04   0.367999E-05   0.111343E-04   0.395896E+00   0.484568E+01
   0.117000E+04   0.367143E-05   0.112598E-04   0.395903E+00   0.484568E+01
   0.118000E+04   0.366366E-05   0.113834E-04   0.395908E+00   0.484568E+01
   0.119000E+04   0.365678E-05   0.115051E-04   0.395914E+00   0.484568E+01
   0.120000E+04   0.365093E-05   0.116250E-04   0.395920E+00   0.484568E+01
   0.121000E+04   0.364620E-05   0.117430E-04   0.395926E+00   0.484568E+01
   0.122000E+04   0.364267E-05   0.118591E-04   0.395933E+00   0.484568E+01
   0.123000E+04   0.364036E-05   0.119734E-04   0.395938E+00   0.484568E+01
   0.124000E+04   0.363930E-05   0.120858E-04   0.395942E+00   0.484568E+01
   0.125000E+04   0.363958E-05   0.121964E-04   0.395947E+00   0.484568E+01
   0.126000E+04   0.364135E-05   0.123051E-04   0.395954E+00   0.484568E+01
   0.127000E+04   0.364466E-05   0.124120E-04   0.395961E+00   0.484568E+01
   0.128000E+04   0.364944E-05   0.125172E-04   0.395966E+00   0.484568E+01
   0.129000E+04   0.365565E-05   0.126205E-04   0.395969E+00   0.484568E+01
   0.130000E+04   0.366340E-05   0.127221E-04   0.395974E+00   0.484568E+01
   0.131000E+04   0.367287E-05   0.128219E-04   0.395982E+00   0.484568E+01
   0.132000E+04   0.368403E-05   0.129201E-04   0.395989E+00   0.484568E+01
   0.133000E+04   0.369672E-05   0.130165E-04   0.395993E+00   0.484568E+01
   0.134000E+04   0.371087E-05   0.131112E-04   0.395995E+00   0.484568E+01
   0.135000E+04   0.372665E-05   0.132043E-04   0.396001E+00   0.484568E+01
   0.136000E+04   0.374420E-05   0.132958E-04   0.396009E+00   0.484568E+01
   0.137000E+04   0.376340E-05   0.133857E-04   0.396016E+00   0.484568E+01
   0.138000E+04   0.378402E-05   0.134740E-04   0.396019E+00   0.484568E+01
   0.139000E+04   0.380606E-05   0.135607E-04   0.396021E+00   0.484568E+01
   0.140000E+04   0.382970E-05   0.136459E-04   0.396027E+00   0.484568E+01
   0.141000E+04   0.385497E-05   0.137297E-04   0.396035E+00   0.484568E+01
   0.142000E+04   0.388170E-05   0.138120E-04   0.396040E+00   0.484568E+01
   0.143000E+04   0.390970E-05   0.138927E-04   0.396042E+00   0.484568E+01
   0.144000E+04   0.393904E-05   0.139721E-04   0.396045E+00   0.484568E+01
   0.145000E+04   0.396982E-05   0.140501E-04   0.396052E+00   0.484568E+01
   0.146000E+04   0.400196E-05   0.141267E-04   0.396057E+00   0.484568E+01
   0.147000E+04   0.403525E-05   0.142020E-04   0.396059E+00   0.484568E+01
   0.148000E+04   0.406971E-05   0.142759E-04   0.396062E+00   0.484568E+01
   0.149000E+04   0.410542E-05   0.143486E-04   0.396067E+00   0.484568E+01
   0.150000E+04   0.414229E-05   0.144200E-04   0.396071E+00   0.484568E+01
   0.151000E+04   0.418011E-05   0.144901E-04   0.396072E+00   0.484568E+01
   0.152000E+04   0.421893E-05   0.145590E-04   0.396074E+00   0.484568E+01
   0.153000E+04   0.425889E-05   0.146268E-04   0.396079E+00   0.484568E+01
   0.154000E+04   0.430038E-05   0.146936E-04   0.396086E+00   0.484568E+01
   0.155000E+04   0.434185E-05   0.147590E-04   0.396082E+00   0.484568E+01
   0.156000E+04   0.438446E-05   0.148234E-04   0.396090E+00   0.484568E+01
   0.157000E+04   0.442810E-05   0.148868E-04   0.396097E+00   0.484568E+01
   0.158000E+04   0.447248E-05   0.149491E-04   0.396100E+00   0.484568E+01
   0.159000E+04   0.451751E-05   0.150104E-04   0.396101E+00   0.484568E+01
   0.160000E+04   0.456337E-05   0.150707E-04   0.396106E+00   0.484568E+01
   0.161000E+04   0.461076E-05   0.151304E-04   0.396117E+00   0.484568E+01
   0.162000E+04   0.465771E-05   0.151887E-04   0.396112E+00   0.484568E+01
   0.163000E+04   0.470539E-05   0.152462E-04   0.396117E+00   0.484568E+01
   0.164000E+04   0.475384E-05   0.153029E-04   0.396125E+00   0.484568E+01
   0.165000E+04   0.480283E-05   0.153587E-04   0.396129E+00   0.484568E+01
   0.166000E+04   0.485216E-05   0.154137E-04   0.396130E+00   0.484568E+01
   0.167000E+04   0.490190E-05   0.154678E-04   0.396133E+00   0.484568E+01
   0.168000E+04   0.495219E-05   0.155212E-04   0.396139E+00   0.484568E+01
   0.169000E+04   0.500290E-05   0.155738E-04   0.396144E+00   0.484568E+01
   0.170000E+04   0.505372E-05   0.156257E-04   0.396144E+00   0.484568E+01
   0.171000E+04   0.510527E-05   0.156770E-04   0.396150E+00   0.484568E+01
   0.172000E+04   0.515635E-05   0.157274E-04   0.396150E+00   0.484568E+01
   0.173000E+04   0.520750E-05   0.157771E-04   0.396152E+00   0.484568E+01
   0.174000E+04   0.525877E-05   0.158262E-04   0.396154E+00   0.484568E+01
   0.175000E+04   0.531034E-05   0.158747E-04   0.396161E+00   0.484568E+01
   0.176000E+04   0.536255E-05   0.159228E-04   0.396168E+00   0.484568E+01
   0.177000E+04   0.541388E-05   0.159700E-04   0.396165E+00   0.484568E+01
   0.178000E+04   0.546547E-05   0.160168E-04   0.396171E+00   0.484568E+01
   0.179000E+04   0.551721E-05   0.160630E-04   0.396178E+00   0.484568E+01
   0.180000E+04   0.556885E-05   0.161087E-04   0.396180E+00   0.484568E+01
   0.181000E+04   0.562036E-05   0.161539E-04   0.396180E+00   0.484568E+01
   0.182000E+04   0.567194E-05   0.161985E-04   0.396184E+00   0.484568E+01
   0.183000E+04   0.572421E-05   0.162431E-04   0.396193E+00   0.484568E+01
   0.184000E+04   0.577559E-05   0.162867E-04   0.396188E+00   0.484568E+01
   0.185000E+04   0.582728E-05   0.163300E-04   0.396193E+00   0.484568E+01
   0.186000E+04   0.587987E-05   0.163733E-04   0.396203E+00   0.484568E+01
   0.187000E+04   0.593191E-05   0.164157E-04   0.396199E+00   0.484568E+01
   0.188000E+04   0.598455E-05   0.164579E-04   0.396204E+00   0.484568E+01
   0.189000E+04   0.603789E-05   0.164998E-04   0.396210E+00   0.484568E+01
   0.190000E+04   0.609183E-05   0.165414E-04   0.396213E+00   0.484568E+01
   0.191000E+04   0.614630E-05   0.165825E-04   0.396213E+00   0.484568E+01
   0.192000E+04   0.620148E-05   0.166234E-04   0.396216E+00   0.484568E+01
   0.193000E+04   0.625760E-05   0.166640E-04   0.396221E+00   0.484568E+01
   0.194000E+04   0.631450E-05   0.167044E-04   0.396225E+00   0.484568E+01
   0.195000E+04   0.637191E-05   0.167444E-04   0.396224E+00   0.484568E+01
   0.196000E+04   0.643040E-05   0.167909E-04   0.396228E+00   0.484568E+01
   0.197000E+04   0.648901E-05   0.168509E-04   0.396228E+00   0.484568E+01
   0.198000E+04   0.654810E-05   0.169103E-04   0.396228E+00   0.484568E+01
   0.199000E+04   0.660771E-05   0.169691E-04   0.396230E+00   0.484568E+01
   0.200000E+04   0.666802E-05   0.170272E-04   0.396236E+00   0.484568E+01
   0.201000E+04   0.672936E-05   0.170848E-04   0.396246E+00   0.484568E+01
   0.202000E+04   0.679079E-05   0.171417E-04   0.396247E+00   0.484568E+01
   0.203000E+04   0.685169E-05   0.171980E-04   0.396236E+00   0.484568E+01
   0.204000E+04   0.691213E-05   0.172537E-04   0.396224E+00   0.484568E+01
   0.205000E+04   0.697272E-05   0.173089E-04   0.396223E+00   0.484568E+01
   0.206000E+04   0.703391E-05   0.173635E-04   0.396231E+00   0.484568E+01
   0.207000E+04   0.709534E-05   0.174176E-04   0.396235E+00   0.484568E+01
   0.208000E+04   0.715673E-05   0.174711E-04   0.396234E+00   0.484568E+01
   0.209000E+04   0.721747E-05   0.175241E-04   0.396220E+00   0.484568E+01
   0.210000E+04   0.727803E-05   0.175766E-04   0.396213E+00   0.484568E+01
   0.211000E+04   0.733891E-05   0.176286E-04   0.396215E+00   0.484568E+01
   0.212000E+04   0.740043E-05   0.176801E-04   0.396224E+00   0.484568E+01
   0.213000E+04   0.746244E-05   0.177311E-04   0.396233E+00   0.484568E+01
   0.214000E+04   0.752472E-05   0.177817E-04   0.396238E+00   0.484568E+01
   0.215000E+04   0.758657E-05   0.178317E-04   0.396231E+00   0.484568E+01
   0.216000E+04   0.764806E-05   0.178813E-04   0.396222E+00   0.484568E+01
   0.217000E+04   0.770967E-05   0.179305E-04   0.396220E+00   0.484568E+01
   0.218000E+04   0.777179E-05   0.179792E-04   0.396227E+00   0.484568E+01
   0.219000E+04   0.783449E-05   0.180276E-04   0.396236E+00   0.484568E+01
   0.220000E+04   0.789754E-05   0.180755E-04   0.396243E+00   0.484568E+01
   0.221000E+04   0.796048E-05   0.181230E-04   0.396241E+00   0.484568E+01
   0.222000E+04   0.802296E-05   0.181701E-04   0.396231E+00   0.484568E+01
   0.223000E+04   0.808540E-05   0.182167E-04   0.396227E+00   0.484568E+01
   0.224000E+04   0.814824E-05   0.182630E-04   0.396230E+00   0.484568E+01
   0.225000E+04   0.821174E-05   0.183089E-04   0.396240E+00   0.484568E+01
   0.226000E+04   0.827567E-05   0.183545E-04   0.396248E+00   0.484568E+01
   0.227000E+04   0.833983E-05   0.183996E-04   0.396253E+00   0.484568E+01
   0.228000E+04   0.840357E-05   0.184444E-04   0.396245E+00   0.484568E+01
   0.229000E+04   0.846708E-05   0.184888E-04   0.396238E+00   0.484568E+01
   0.230000E+04   0.853078E-05   0.185329E-04   0.396238E+00   0.484568E+01
   0.231000E+04   0.859501E-05   0.185766E-04   0.396245E+00   0.484568E+01
   0.232000E+04   0.865971E-05   0.186200E-04   0.396253E+00   0.484568E+01
   0.233000E+04   0.872474E-05   0.186631E-04   0.396260E+00   0.484568E+01
   0.234000E+04   0.878954E-05   0.187059E-04   0.396255E+00   0.484568E+01
   0.235000E+04   0.885394E-05   0.187482E-04   0.396247E+00   0.484568E+01
   0.236000E+04   0.891836E-05   0.187903E-04   0.396244E+00   0.484568E+01
   0.237000E+04   0.898321E-05   0.188320E-04   0.396249E+00   0.484568E+01
   0.238000E+04   0.904869E-05   0.188735E-04   0.396259E+00   0.484568E+01
   0.239000E+04   0.911455E-05   0.189146E-04   0.396267E+00   0.484568E+01
   0.240000E+04   0.918047E-05   0.189555E-04   0.396269E+00   0.484568E+01
   0.241000E+04   0.924593E-05   0.189960E-04   0.396260E+00   0.484568E+01
   0.242000E+04   0.931121E-05   0.190362E-04   0.396255E+00   0.484568E+01
   0.243000E+04   0.937669E-05   0.190762E-04   0.396256E+00   0.484568E+01
   0.244000E+04   0.944268E-05   0.191158E-04   0.396264E+00   0.484568E+01
   0.245000E+04   0.950905E-05   0.191552E-04   0.396271E+00   0.484568E+01
   0.246000E+04   0.957565E-05   0.191943E-04   0.396276E+00   0.484548E+01
   0.247000E+04   0.964189E-05   0.192331E-04   0.396270E+00   0.484548E+01
   0.248000E+04   0.970779E-05   0.192716E-04   0.396262E+00   0.484548E+01
   0.249000E+04   0.977374E-05   0.193099E-04   0.396261E+00   0.484548E+01
   0.250000E+04   0.984016E-05   0.193479E-04   0.396267E+00   0.484548E+01
   0.251000E+04   0.990715E-05   0.193856E-04   0.396277E+00   0.484548E+01
   0.252000E+04   0.997446E-05   0.194231E-04   0.396284E+00   0.484548E+01
   0.253000E+04   0.100417E-04   0.194604E-04   0.396284E+00   0.484548E+01
   0.254000E+04   0.101084E-04   0.194974E-04   0.396275E+00   0.484548E+01
   0.255000E+04   0.101751E-04   0.195341E-04   0.396271E+00   0.484548E+01
   0.256000E+04   0.102419E-04   0.195705E-04   0.396273E+00   0.484548E+01
   0.257000E+04   0.103093E-04   0.196068E-04   0.396281E+00   0.484548E+01
   0.258000E+04   0.103770E-04   0.196428E-04   0.396288E+00   0.484548E+01
   0.259000E+04   0.104449E-04   0.196786E-04   0.396293E+00   0.484548E+01
   0.260000E+04   0.105123E-04   0.197141E-04   0.396285E+00   0.484548E+01
   0.261000E+04   0.105794E-04   0.197494E-04   0.396278E+00   0.484548E+01
   0.262000E+04   0.106466E-04   0.197844E-04   0.396278E+00   0.484548E+01
   0.263000E+04   0.107142E-04   0.198193E-04   0.396285E+00   0.484548E+01
   0.264000E+04   0.107824E-04   0.198539E-04   0.396294E+00   0.484548E+01
   0.265000E+04   0.108508E-04   0.198883E-04   0.396301E+00   0.484548E+01
   0.266000E+04   0.109189E-04   0.199225E-04   0.396298E+00   0.484548E+01
   0.267000E+04   0.109865E-04   0.199565E-04   0.396289E+00   0.484548E+01
   0.268000E+04   0.110541E-04   0.199902E-04   0.396285E+00   0.484548E+01
   0.269000E+04   0.111219E-04   0.200238E-04   0.396289E+00   0.484548E+01
   0.270000E+04   0.111901E-04   0.200571E-04   0.396298E+00   0.484548E+01
   0.271000E+04   0.112587E-04   0.200903E-04   0.396304E+00   0.484548E+01
   0.272000E+04   0.113272E-04   0.201233E-04   0.396307E+00   0.484548E+01
   0.273000E+04   0.113953E-04   0.201560E-04   0.396298E+00   0.484548E+01
   0.274000E+04   0.114631E-04   0.201885E-04   0.396292E+00   0.484548E+01
   0.275000E+04   0.115310E-04   0.202208E-04   0.396293E+00   0.484548E+01
   0.276000E+04   0.115994E-04   0.202530E-04   0.396301E+00   0.484548E+01
   0.277000E+04   0.116682E-04   0.202850E-04   0.396310E+00   0.484548E+01
   0.278000E+04   0.117371E-04   0.203168E-04   0.396316E+00   0.484548E+01
   0.279000E+04   0.118056E-04   0.203484E-04   0.396310E+00   0.484548E+01
   0.280000E+04   0.118737E-04   0.203797E-04   0.396301E+00   0.484548E+01
   0.281000E+04   0.119417E-04   0.204109E-04   0.396299E+00   0.484548E+01
   0.282000E+04   0.120100E-04   0.204419E-04   0.396304E+00   0.484548E+01
   0.283000E+04   0.120787E-04   0.204728E-04   0.396313E+00   0.484548E+01
   0.284000E+04   0.121476E-04   0.205035E-04   0.396319E+00   0.484548E+01
   0.285000E+04   0.122164E-04   0.205340E-04   0.396319E+00   0.484548E+01
   0.286000E+04   0.122846E-04   0.205643E-04   0.396310E+00   0.484548E+01
   0.287000E+04   0.123526E-04   0.205944E-04   0.396305E+00   0.484548E+01
   0.288000E+04   0.124208E-04   0.206244E-04   0.396307E+00   0.484548E+01
   0.289000E+04   0.124895E-04   0.206542E-04   0.396316E+00   0.484548E+01
   0.290000E+04   0.125584E-04   0.206839E-04   0.396324E+00   0.484548E+01
   0.291000E+04   0.126274E-04   0.207134E-04   0.396329E+00   0.484548E+01
   0.292000E+04   0.126959E-04   0.207427E-04   0.396321E+00   0.484548E+01
   0.293000E+04   0.127640E-04   0.207718E-04   0.396313E+00   0.484548E+01
   0.294000E+04   0.128320E-04   0.208008E-04   0.396312E+00   0.484548E+01
   0.295000E+04   0.129004E-04   0.208296E-04   0.396318E+00   0.484548E+01
   0.296000E+04   0.129691E-04   0.208582E-04   0.396326E+00   0.484548E+01
   0.297000E+04   0.130380E-04   0.208868E-04   0.396333E+00   0.484548E+01
   0.298000E+04   0.131065E-04   0.209151E-04   0.396330E+00   0.484548E+01
   0.299000E+04   0.131746E-04   0.209433E-04   0.396320E+00   0.484548E+01
   0.300000E+04   0.132424E-04   0.209713E-04   0.396316E+00   0.484548E+01
   0.301000E+04   0.133105E-04   0.209991E-04   0.396321E+00   0.484548E+01
   0.302000E+04   0.133790E-04   0.210269E-04   0.396330E+00   0.484548E+01
   0.303000E+04   0.134478E-04   0.210545E-04   0.396338E+00   0.484548E+01
   0.304000E+04   0.135164E-04   0.210819E-04   0.396340E+00   0.484548E+01
   0.305000E+04   0.135844E-04   0.211092E-04   0.396331E+00   0.484548E+01
   0.306000E+04   0.136522E-04   0.211363E-04   0.396324E+00   0.484548E+01
   0.307000E+04   0.137199E-04   0.211632E-04   0.396325E+00   0.484548E+01
   0.308000E+04   0.137880E-04   0.211900E-04   0.396332E+00   0.484548E+01
   0.309000E+04   0.138563E-04   0.212167E-04   0.396339E+00   0.484548E+01
   0.310000E+04   0.139247E-04   0.212433E-04   0.396345E+00   0.484548E+01
   0.311000E+04   0.139927E-04   0.212697E-04   0.396339E+00   0.484548E+01
   0.312000E+04   0.140602E-04   0.212959E-04   0.396330E+00   0.484548E+01
   0.313000E+04   0.141275E-04   0.213220E-04   0.396328E+00   0.484548E+01
   0.314000E+04   0.141952E-04   0.213479E-04   0.396334E+00   0.484548E+01
   0.315000E+04   0.142632E-04   0.213737E-04   0.396343E+00   0.484548E+01
   0.316000E+04   0.143313E-04   0.213995E-04   0.396350E+00   0.484548E+01
   0.317000E+04   0.143992E-04   0.214250E-04   0.396349E+00   0.484548E+01
   0.318000E+04   0.144665E-04   0.214504E-04   0.396340E+00   0.484548E+01
   0.319000E+04   0.145335E-04   0.214756E-04   0.396334E+00   0.484548E+01
   0.320000E+04   0.146006E-04   0.215008E-04   0.396336E+00   0.484548E+01
   0.321000E+04   0.146681E-04   0.215258E-04   0.396345E+00   0.484548E+01
   0.322000E+04   0.147357E-04   0.215506E-04   0.396352E+00   0.484548E+01
   0.323000E+04   0.148033E-04   0.215754E-04   0.396356E+00   0.484548E+01
   0.324000E+04   0.148704E-04   0.216000E-04   0.396348E+00   0.484548E+01
   0.325000E+04   0.149370E-04   0.216244E-04   0.396340E+00   0.484548E+01
   0.326000E+04   0.150036E-04   0.216487E-04   0.396340E+00   0.484548E+01
   0.327000E+04   0.150705E-04   0.216729E-04   0.396347E+00   0.484548E+01
   0.328000E+04   0.151377E-04   0.216970E-04   0.396355E+00   0.484548E+01
   0.329000E+04   0.152049E-04   0.217209E-04   0.396362E+00   0.484548E+01
   0.330000E+04   0.152718E-04   0.217448E-04   0.396358E+00   0.484548E+01
   0.331000E+04   0.153381E-04   0.217684E-04   0.396348E+00   0.484548E+01
   0.332000E+04   0.154042E-04   0.217919E-04   0.396344E+00   0.484548E+01
   0.333000E+04   0.154704E-04   0.218153E-04   0.396348E+00   0.484548E+01
   0.334000E+04   0.155370E-04   0.218386E-04   0.396356E+00   0.484548E+01
   0.335000E+04   0.156037E-04   0.218618E-04   0.396363E+00   0.484548E+01
   0.336000E+04   0.156702E-04   0.218848E-04   0.396365E+00   0.484548E+01
   0.337000E+04   0.157362E-04   0.219077E-04   0.396355E+00   0.484548E+01
   0.338000E+04   0.158018E-04   0.219305E-04   0.396349E+00   0.484548E+01
   0.339000E+04   0.158675E-04   0.219531E-04   0.396350E+00   0.484548E+01
   0.340000E+04   0.159334E-04   0.219756E-04   0.396358E+00   0.484548E+01
   0.341000E+04   0.159995E-04   0.219980E-04   0.396366E+00   0.484548E+01
   0.342000E+04   0.160657E-04   0.220204E-04   0.396372E+00   0.484548E+01
   0.343000E+04   0.161313E-04   0.220425E-04   0.396365E+00   0.484548E+01
   0.344000E+04   0.161964E-04   0.220645E-04   0.396356E+00   0.484548E+01
   0.345000E+04   0.162614E-04   0.220864E-04   0.396353E+00   0.484548E+01
   0.346000E+04   0.163266E-04   0.221082E-04   0.396358E+00   0.484548E+01
   0.347000E+04   0.163920E-04   0.221298E-04   0.396367E+00   0.484548E+01
   0.348000E+04   0.164574E-04   0.221514E-04   0.396373E+00   0.484548E+01
   0.349000E+04   0.165226E-04   0.221729E-04   0.396372E+00   0.484548E+01
   0.350000E+04   0.165871E-04   0.221942E-04   0.396362E+00   0.484548E+01
   0.351000E+04   0.166514E-04   0.222153E-04   0.396357E+00   0.484548E+01
   0.352000E+04   0.167157E-04   0.222364E-04   0.396360E+00   0.484548E+01
   0.353000E+04   0.167803E-04   0.222573E-04   0.396369E+00   0.484548E+01
   0.354000E+04   0.168449E-04   0.222782E-04   0.396376E+00   0.484548E+01
   0.355000E+04   0.169094E-04   0.222989E-04   0.396380E+00   0.484548E+01
   0.356000E+04   0.169732E-04   0.223195E-04   0.396370E+00   0.484548E+01
   0.357000E+04   0.170366E-04   0.223400E-04   0.396363E+00   0.484548E+01
   0.358000E+04   0.170999E-04   0.223604E-04   0.396362E+00   0.484548E+01
   0.359000E+04   0.171632E-04   0.223806E-04   0.396369E+00   0.484548E+01
   0.360000E+04   0.172267E-04   0.224008E-04   0.396376E+00   0.484548E+01
   0.361000E+04   0.172901E-04   0.224209E-04   0.396382E+00   0.484548E+01
   0.362000E+04   0.173529E-04   0.224408E-04   0.396378E+00   0.484548E+01
   0.363000E+04   0.174151E-04   0.224606E-04   0.396368E+00   0.484548E+01
   0.364000E+04   0.174771E-04   0.224803E-04   0.396365E+00   0.484548E+01
   0.365000E+04   0.175390E-04   0.224999E-04   0.396369E+00   0.484548E+01
   0.366000E+04   0.176010E-04   0.225194E-04   0.396378E+00   0.484548E+01
   0.367000E+04   0.176630E-04   0.225388E-04   0.396385E+00   0.484548E+01
   0.368000E+04   0.177246E-04   0.225582E-04   0.396386E+00   0.484548E+01
   0.369000E+04   0.177854E-04   0.225773E-04   0.396376E+00   0.484548E+01
   0.370000E+04   0.178458E-04   0.225964E-04   0.396370E+00   0.484548E+01
   0.371000E+04   0.179059E-04   0.226153E-04   0.396371E+00   0.484548E+01
   0.372000E+04   0.179661E-04   0.226342E-04   0.396378E+00   0.484548E+01
   0.373000E+04   0.180263E-04   0.226530E-04   0.396385E+00   0.484548E+01
   0.374000E+04   0.180862E-04   0.226717E-04   0.396390E+00   0.484548E+01
   0.375000E+04   0.181453E-04   0.226903E-04   0.396383E+00   0.484548E+01
   0.376000E+04   0.182039E-04   0.227088E-04   0.396374E+00   0.484548E+01
   0.377000E+04   0.182620E-04   0.227271E-04   0.396373E+00   0.484548E+01
   0.378000E+04   0.183202E-04   0.227454E-04   0.396379E+00   0.484548E+01
   0.379000E+04   0.183783E-04   0.227636E-04   0.396387E+00   0.484548E+01
   0.380000E+04   0.184362E-04   0.228280E-04   0.396394E+00   0.484548E+01
   0.381000E+04   0.184935E-04   0.229610E-04   0.396391E+00   0.484548E+01
   0.382000E+04   0.185500E-04   0.230937E-04   0.396381E+00   0.484548E+01
   0.383000E+04   0.186061E-04   0.232257E-04   0.396376E+00   0.484548E+01
   0.384000E+04   0.186619E-04   0.233563E-04   0.396379E+00   0.484548E+01
   0.385000E+04   0.187177E-04   0.234853E-04   0.396387E+00   0.484548E+01
   0.386000E+04   0.187734E-04   0.236128E-04   0.396394E+00   0.484548E+01
   0.387000E+04   0.188287E-04   0.237392E-04   0.396397E+00   0.484548E+01
   0.388000E+04   0.188831E-04   0.238652E-04   0.396387E+00   0.484548E+01
   0.389000E+04   0.189370E-04   0.239906E-04   0.396380E+00   0.484548E+01
   0.390000E+04   0.189905E-04   0.241149E-04   0.396381E+00   0.484548E+01
   0.391000E+04   0.190440E-04   0.242377E-04   0.396388E+00   0.484548E+01
   0.392000E+04   0.190974E-04   0.243589E-04   0.396396E+00   0.484548E+01
   0.393000E+04   0.191505E-04   0.244787E-04   0.396402E+00   0.484548E+01