title="breakthrough data set at     5 wells"
variables="time(days)","cavg","cpk","upk","zswi"
zone i=     1295
   0.100000E+02   0.195590E-09   0.249895E-09   0.451555E+00   0.485577E+01
   0.200000E+02   0.493544E-09   0.629590E-09   0.379518E+00   0.483413E+01
   0.300000E+02   0.101009E-08   0.129370E-08   0.379479E+00   0.483413E+01
   0.400000E+02   0.183695E-08   0.236161E-08   0.379708E+00   0.483413E+01
   0.500000E+02   0.309214E-08   0.398629E-08   0.379922E+00   0.483413E+01
   0.600000E+02   0.492738E-08   0.636337E-08   0.380112E+00   0.483413E+01
   0.700000E+02   0.753268E-08   0.973584E-08   0.380294E+00   0.483413E+01
   0.800000E+02   0.111393E-07   0.143956E-07   0.380462E+00   0.483413E+01
   0.900000E+02   0.160216E-07   0.206829E-07   0.380622E+00   0.483413E+01
   0.100000E+03   0.224941E-07   0.289791E-07   0.380776E+00   0.483413E+01
   0.110000E+03   0.309037E-07   0.396908E-07   0.380922E+00   0.483413E+01
   0.120000E+03   0.416152E-07   0.532267E-07   0.381060E+00   0.483413E+01
   0.130000E+03   0.549963E-07   0.699734E-07   0.381193E+00   0.483413E+01
   0.140000E+03   0.714036E-07   0.902747E-07   0.381319E+00   0.483413E+01
   0.150000E+03   0.912101E-07   0.114452E-06   0.381315E+00   0.483413E+01
   0.160000E+03   0.114676E-06   0.142692E-06   0.381556E+00   0.483413E+01
   0.170000E+03   0.142098E-06   0.175159E-06   0.381663E+00   0.483413E+01
   0.180000E+03   0.173752E-06   0.216338E-06   0.381657E+00   0.483413E+01
   0.190000E+03   0.209803E-06   0.271267E-06   0.381763E+00   0.483413E+01
   0.200000E+03   0.250421E-06   0.336070E-06   0.381862E+00   0.483413E+01
   0.210000E+03   0.295746E-06   0.411656E-06   0.381956E+00   0.483413E+01
   0.220000E+03   0.345902E-06   0.498910E-06   0.382043E+00   0.483413E+01
   0.230000E+03   0.401012E-06   0.598710E-06   0.382125E+00   0.483413E+01
   0.240000E+03   0.461212E-06   0.711935E-06   0.382203E+00   0.483413E+01
   0.250000E+03   0.526661E-06   0.839474E-06   0.382276E+00   0.483413E+01
   0.260000E+03   0.597539E-06   0.982214E-06   0.382346E+00   0.483413E+01
   0.270000E+03   0.674037E-06   0.114101E-05   0.382412E+00   0.483413E+01
   0.280000E+03   0.756341E-06   0.131667E-05   0.382476E+00   0.483413E+01
   0.290000E+03   0.844610E-06   0.150990E-05   0.382538E+00   0.483413E+01
   0.300000E+03   0.938957E-06   0.172126E-05   0.382597E+00   0.483413E+01
   0.310000E+03   0.103943E-05   0.195118E-05   0.382654E+00   0.483413E+01
   0.320000E+03   0.114601E-05   0.219991E-05   0.382708E+00   0.483413E+01
   0.330000E+03   0.125861E-05   0.246754E-05   0.382760E+00   0.483413E+01
   0.340000E+03   0.137708E-05   0.275406E-05   0.382809E+00   0.483413E+01
   0.350000E+03   0.150126E-05   0.305941E-05   0.382857E+00   0.483413E+01
   0.360000E+03   0.163095E-05   0.338349E-05   0.382902E+00   0.483413E+01
   0.370000E+03   0.176596E-05   0.372621E-05   0.382946E+00   0.483413E+01
   0.380000E+03   0.190608E-05   0.408748E-05   0.382988E+00   0.483413E+01
   0.390000E+03   0.205110E-05   0.446720E-05   0.383029E+00   0.483413E+01
   0.400000E+03   0.220077E-05   0.486520E-05   0.383069E+00   0.483413E+01
   0.410000E+03   0.235482E-05   0.528124E-05   0.383108E+00   0.483413E+01
   0.420000E+03   0.251291E-05   0.571491E-05   0.383146E+00   0.483413E+01
   0.430000E+03   0.267463E-05   0.616559E-05   0.383183E+00   0.483413E+01
   0.440000E+03   0.283951E-05   0.663241E-05   0.383218E+00   0.483413E+01
   0.450000E+03   0.300703E-05   0.711428E-05   0.383253E+00   0.483413E+01
   0.460000E+03   0.317663E-05   0.760988E-05   0.383286E+00   0.483413E+01
   0.470000E+03   0.334773E-05   0.811785E-05   0.383318E+00   0.483413E+01
   0.480000E+03   0.351986E-05   0.863687E-05   0.383349E+00   0.483413E+01
   0.490000E+03   0.369258E-05   0.916587E-05   0.383379E+00   0.483413E+01
   0.500000E+03   0.386562E-05   0.970406E-05   0.383408E+00   0.483413E+01
   0.510000E+03   0.403880E-05   0.102510E-04   0.383437E+00   0.483413E+01
   0.520000E+03   0.421208E-05   0.108064E-04   0.383465E+00   0.483413E+01
   0.530000E+03   0.438543E-05   0.113700E-04   0.383493E+00   0.483413E+01
   0.540000E+03   0.455882E-05   0.119416E-04   0.383520E+00   0.483413E+01
   0.550000E+03   0.473218E-05   0.125202E-04   0.383546E+00   0.483413E+01
   0.560000E+03   0.490528E-05   0.131047E-04   0.383572E+00   0.483413E+01
   0.570000E+03   0.507777E-05   0.136929E-04   0.383598E+00   0.483413E+01
   0.580000E+03   0.524920E-05   0.142823E-04   0.383622E+00   0.483413E+01
   0.590000E+03   0.541901E-05   0.148699E-04   0.383644E+00   0.483413E+01
   0.600000E+03   0.558664E-05   0.154524E-04   0.383669E+00   0.483413E+01
   0.610000E+03   0.575164E-05   0.160267E-04   0.383694E+00   0.483413E+01
   0.620000E+03   0.591310E-05   0.165885E-04   0.383739E+00   0.483413E+01
   0.630000E+03   0.607154E-05   0.171371E-04   0.383760E+00   0.483413E+01
   0.640000E+03   0.622753E-05   0.176721E-04   0.383787E+00   0.483413E+01
   0.650000E+03   0.638193E-05   0.181939E-04   0.383845E+00   0.483413E+01
   0.660000E+03   0.653644E-05   0.187054E-04   0.383863E+00   0.483413E+01
   0.670000E+03   0.669318E-05   0.192107E-04   0.383870E+00   0.483413E+01
   0.680000E+03   0.685449E-05   0.197145E-04   0.383883E+00   0.483413E+01
   0.690000E+03   0.702277E-05   0.202215E-04   0.383907E+00   0.483413E+01
   0.700000E+03   0.720029E-05   0.207365E-04   0.383952E+00   0.483413E+01
   0.710000E+03   0.738936E-05   0.212642E-04   0.383973E+00   0.483413E+01
   0.720000E+03   0.759216E-05   0.218089E-04   0.383978E+00   0.483413E+01
   0.730000E+03   0.781062E-05   0.223745E-04   0.383978E+00   0.483413E+01
   0.740000E+03   0.804629E-05   0.229639E-04   0.383984E+00   0.483413E+01
   0.750000E+03   0.830025E-05   0.235787E-04   0.384021E+00   0.483413E+01
   0.760000E+03   0.857349E-05   0.242206E-04   0.384051E+00   0.483413E+01
   0.770000E+03   0.886692E-05   0.248913E-04   0.384062E+00   0.483413E+01
   0.780000E+03   0.918129E-05   0.255920E-04   0.384063E+00   0.483413E+01
   0.790000E+03   0.951711E-05   0.263237E-04   0.384069E+00   0.483413E+01
   0.800000E+03   0.987446E-05   0.270863E-04   0.384094E+00   0.483413E+01
   0.810000E+03   0.102533E-04   0.278799E-04   0.384124E+00   0.483413E+01
   0.820000E+03   0.106539E-04   0.287051E-04   0.384132E+00   0.483413E+01
   0.830000E+03   0.110764E-04   0.295627E-04   0.384131E+00   0.483413E+01
   0.840000E+03   0.115207E-04   0.304529E-04   0.384130E+00   0.483413E+01
   0.850000E+03   0.119866E-04   0.313757E-04   0.384149E+00   0.483413E+01
   0.860000E+03   0.124734E-04   0.323304E-04   0.384186E+00   0.483413E+01
   0.870000E+03   0.129812E-04   0.333177E-04   0.384200E+00   0.483413E+01
   0.880000E+03   0.135100E-04   0.343385E-04   0.384198E+00   0.483413E+01
   0.890000E+03   0.140596E-04   0.353933E-04   0.384188E+00   0.483413E+01
   0.900000E+03   0.146296E-04   0.364823E-04   0.384195E+00   0.483413E+01
   0.910000E+03   0.152193E-04   0.376047E-04   0.384229E+00   0.483413E+01
   0.920000E+03   0.158288E-04   0.387616E-04   0.384243E+00   0.483413E+01
   0.930000E+03   0.164580E-04   0.399540E-04   0.384247E+00   0.483413E+01
   0.940000E+03   0.171072E-04   0.411829E-04   0.384244E+00   0.483413E+01
   0.950000E+03   0.177759E-04   0.424485E-04   0.384248E+00   0.483413E+01
   0.960000E+03   0.184633E-04   0.437501E-04   0.384272E+00   0.483413E+01
   0.970000E+03   0.191691E-04   0.450880E-04   0.384287E+00   0.483413E+01
   0.980000E+03   0.198935E-04   0.464629E-04   0.384290E+00   0.483413E+01
   0.990000E+03   0.206367E-04   0.478762E-04   0.384283E+00   0.483413E+01
   0.100000E+04   0.213981E-04   0.493275E-04   0.384287E+00   0.483413E+01
   0.101000E+04   0.221766E-04   0.508149E-04   0.384311E+00   0.483413E+01
   0.102000E+04   0.229711E-04   0.523368E-04   0.384337E+00   0.483413E+01
   0.103000E+04   0.237810E-04   0.538923E-04   0.384340E+00   0.483413E+01
   0.104000E+04   0.246060E-04   0.554810E-04   0.384323E+00   0.483413E+01
   0.105000E+04   0.254449E-04   0.571002E-04   0.384318E+00   0.483413E+01
   0.106000E+04   0.262955E-04   0.587460E-04   0.384337E+00   0.483413E+01
   0.107000E+04   0.271558E-04   0.604136E-04   0.384372E+00   0.483413E+01
   0.108000E+04   0.280244E-04   0.621003E-04   0.384380E+00   0.483413E+01
   0.109000E+04   0.289005E-04   0.638037E-04   0.384369E+00   0.483413E+01
   0.110000E+04   0.297830E-04   0.655206E-04   0.384357E+00   0.483413E+01
   0.111000E+04   0.306696E-04   0.672466E-04   0.384365E+00   0.483413E+01
   0.112000E+04   0.315580E-04   0.689761E-04   0.384398E+00   0.483413E+01
   0.113000E+04   0.324474E-04   0.707072E-04   0.384408E+00   0.483413E+01
   0.114000E+04   0.333374E-04   0.724382E-04   0.384401E+00   0.483413E+01
   0.115000E+04   0.342277E-04   0.741681E-04   0.384386E+00   0.483413E+01
   0.116000E+04   0.351172E-04   0.758937E-04   0.384391E+00   0.483413E+01
   0.117000E+04   0.360039E-04   0.776113E-04   0.384425E+00   0.483413E+01
   0.118000E+04   0.368877E-04   0.793202E-04   0.384438E+00   0.483413E+01
   0.119000E+04   0.377687E-04   0.810204E-04   0.384432E+00   0.483413E+01
   0.120000E+04   0.386477E-04   0.827126E-04   0.384411E+00   0.483413E+01
   0.121000E+04   0.395242E-04   0.843958E-04   0.384410E+00   0.483413E+01
   0.122000E+04   0.403970E-04   0.860673E-04   0.384437E+00   0.483413E+01
   0.123000E+04   0.412659E-04   0.877268E-04   0.384460E+00   0.483413E+01
   0.124000E+04   0.421313E-04   0.893751E-04   0.384465E+00   0.483413E+01
   0.125000E+04   0.429945E-04   0.910144E-04   0.384446E+00   0.483413E+01
   0.126000E+04   0.438554E-04   0.926447E-04   0.384435E+00   0.483413E+01
   0.127000E+04   0.447132E-04   0.942649E-04   0.384449E+00   0.483413E+01
   0.128000E+04   0.455677E-04   0.958744E-04   0.384475E+00   0.483413E+01
   0.129000E+04   0.464194E-04   0.974750E-04   0.384483E+00   0.483413E+01
   0.130000E+04   0.472698E-04   0.990692E-04   0.384470E+00   0.483413E+01
   0.131000E+04   0.481193E-04   0.100658E-03   0.384462E+00   0.483413E+01
   0.132000E+04   0.489671E-04   0.102240E-03   0.384472E+00   0.483413E+01
   0.133000E+04   0.498123E-04   0.103815E-03   0.384499E+00   0.483413E+01
   0.134000E+04   0.506557E-04   0.105383E-03   0.384502E+00   0.483413E+01
   0.135000E+04   0.514986E-04   0.106949E-03   0.384487E+00   0.483413E+01
   0.136000E+04   0.523418E-04   0.108513E-03   0.384475E+00   0.483413E+01
   0.137000E+04   0.531845E-04   0.110075E-03   0.384485E+00   0.483413E+01
   0.138000E+04   0.540253E-04   0.111631E-03   0.384520E+00   0.483413E+01
   0.139000E+04   0.548650E-04   0.113185E-03   0.384527E+00   0.483413E+01
   0.140000E+04   0.557046E-04   0.114738E-03   0.384513E+00   0.483413E+01
   0.141000E+04   0.565451E-04   0.116292E-03   0.384490E+00   0.483413E+01
   0.142000E+04   0.573859E-04   0.117847E-03   0.384492E+00   0.483413E+01
   0.143000E+04   0.582252E-04   0.119400E-03   0.384526E+00   0.483413E+01
   0.144000E+04   0.590637E-04   0.120952E-03   0.384541E+00   0.483413E+01
   0.145000E+04   0.599018E-04   0.122505E-03   0.384537E+00   0.483413E+01
   0.146000E+04   0.607409E-04   0.124060E-03   0.384513E+00   0.483413E+01
   0.147000E+04   0.615803E-04   0.125618E-03   0.384508E+00   0.483413E+01
   0.148000E+04   0.624183E-04   0.127175E-03   0.384533E+00   0.483413E+01
   0.149000E+04   0.632547E-04   0.128732E-03   0.384552E+00   0.483413E+01
   0.150000E+04   0.640900E-04   0.130290E-03   0.384554E+00   0.483413E+01
   0.151000E+04   0.649255E-04   0.131850E-03   0.384531E+00   0.483413E+01
   0.152000E+04   0.657609E-04   0.133414E-03   0.384523E+00   0.483413E+01
   0.153000E+04   0.665950E-04   0.134979E-03   0.384539E+00   0.483413E+01
   0.154000E+04   0.674262E-04   0.136542E-03   0.384569E+00   0.483413E+01
   0.155000E+04   0.682556E-04   0.138105E-03   0.384575E+00   0.483413E+01
   0.156000E+04   0.690848E-04   0.139673E-03   0.384552E+00   0.483413E+01
   0.157000E+04   0.699143E-04   0.141245E-03   0.384536E+00   0.483413E+01
   0.158000E+04   0.707430E-04   0.142820E-03   0.384544E+00   0.483413E+01
   0.159000E+04   0.715693E-04   0.144396E-03   0.384578E+00   0.483413E+01
   0.160000E+04   0.723939E-04   0.145974E-03   0.384589E+00   0.483413E+01
   0.161000E+04   0.732177E-04   0.147556E-03   0.384576E+00   0.483413E+01
   0.162000E+04   0.740414E-04   0.149144E-03   0.384557E+00   0.483413E+01
   0.163000E+04   0.748642E-04   0.150736E-03   0.384556E+00   0.483413E+01
   0.164000E+04   0.756843E-04   0.152329E-03   0.384585E+00   0.483413E+01
   0.165000E+04   0.765021E-04   0.153924E-03   0.384594E+00   0.483413E+01
   0.166000E+04   0.773190E-04   0.155522E-03   0.384587E+00   0.483413E+01
   0.167000E+04   0.781366E-04   0.157127E-03   0.384567E+00   0.483413E+01
   0.168000E+04   0.789547E-04   0.158738E-03   0.384568E+00   0.483413E+01
   0.169000E+04   0.797711E-04   0.160351E-03   0.384596E+00   0.483413E+01
   0.170000E+04   0.805866E-04   0.161968E-03   0.384609E+00   0.483413E+01
   0.171000E+04   0.814020E-04   0.163591E-03   0.384603E+00   0.483413E+01
   0.172000E+04   0.822185E-04   0.165222E-03   0.384577E+00   0.483413E+01
   0.173000E+04   0.830353E-04   0.166859E-03   0.384574E+00   0.483413E+01
   0.174000E+04   0.838505E-04   0.168498E-03   0.384596E+00   0.483413E+01
   0.175000E+04   0.846631E-04   0.170139E-03   0.384620E+00   0.483413E+01
   0.176000E+04   0.854736E-04   0.171782E-03   0.384621E+00   0.483413E+01
   0.177000E+04   0.862840E-04   0.173429E-03   0.384595E+00   0.483413E+01
   0.178000E+04   0.870953E-04   0.175082E-03   0.384582E+00   0.483413E+01
   0.179000E+04   0.879066E-04   0.176740E-03   0.384593E+00   0.483413E+01
   0.180000E+04   0.887165E-04   0.178399E-03   0.384626E+00   0.483413E+01
   0.181000E+04   0.895263E-04   0.180063E-03   0.384634E+00   0.483413E+01
   0.182000E+04   0.903380E-04   0.181735E-03   0.384614E+00   0.483413E+01
   0.183000E+04   0.911520E-04   0.183415E-03   0.384595E+00   0.483413E+01
   0.184000E+04   0.919667E-04   0.185102E-03   0.384599E+00   0.483413E+01
   0.185000E+04   0.927793E-04   0.186790E-03   0.384634E+00   0.483413E+01
   0.186000E+04   0.935906E-04   0.188480E-03   0.384643E+00   0.483413E+01
   0.187000E+04   0.944014E-04   0.190174E-03   0.384628E+00   0.483413E+01
   0.188000E+04   0.952138E-04   0.191874E-03   0.384602E+00   0.483413E+01
   0.189000E+04   0.960278E-04   0.193581E-03   0.384599E+00   0.483413E+01
   0.190000E+04   0.968417E-04   0.195290E-03   0.384631E+00   0.483413E+01
   0.191000E+04   0.976558E-04   0.197003E-03   0.384650E+00   0.483413E+01
   0.192000E+04   0.984711E-04   0.198722E-03   0.384649E+00   0.483413E+01
   0.193000E+04   0.992886E-04   0.200449E-03   0.384620E+00   0.483413E+01
   0.194000E+04   0.100108E-03   0.202182E-03   0.384607E+00   0.483413E+01
   0.195000E+04   0.100926E-03   0.203918E-03   0.384623E+00   0.483413E+01
   0.196000E+04   0.101743E-03   0.205656E-03   0.384648E+00   0.483413E+01
   0.197000E+04   0.102560E-03   0.207395E-03   0.384655E+00   0.483413E+01
   0.198000E+04   0.103378E-03   0.209139E-03   0.384634E+00   0.483413E+01
   0.199000E+04   0.104196E-03   0.210887E-03   0.384622E+00   0.483413E+01
   0.200000E+04   0.105014E-03   0.212637E-03   0.384627E+00   0.483413E+01
   0.201000E+04   0.105830E-03   0.214384E-03   0.384655E+00   0.483413E+01
   0.202000E+04   0.106645E-03   0.216130E-03   0.384660E+00   0.483413E+01
   0.203000E+04   0.107461E-03   0.217880E-03   0.384645E+00   0.483413E+01
   0.204000E+04   0.108278E-03   0.219635E-03   0.384628E+00   0.483413E+01
   0.205000E+04   0.109095E-03   0.221392E-03   0.384630E+00   0.483413E+01
   0.206000E+04   0.109909E-03   0.223144E-03   0.384663E+00   0.483413E+01
   0.207000E+04   0.110720E-03   0.224892E-03   0.384672E+00   0.483413E+01
   0.208000E+04   0.111528E-03   0.226638E-03   0.384660E+00   0.483413E+01
   0.209000E+04   0.112338E-03   0.228386E-03   0.384632E+00   0.483413E+01
   0.210000E+04   0.113147E-03   0.230135E-03   0.384627E+00   0.483413E+01
   0.211000E+04   0.113955E-03   0.231880E-03   0.384654E+00   0.483413E+01
   0.212000E+04   0.114759E-03   0.233622E-03   0.384675E+00   0.483413E+01
   0.213000E+04   0.115563E-03   0.235361E-03   0.384675E+00   0.483413E+01
   0.214000E+04   0.116366E-03   0.237102E-03   0.384648E+00   0.483413E+01
   0.215000E+04   0.117168E-03   0.238844E-03   0.384635E+00   0.483413E+01
   0.216000E+04   0.117970E-03   0.240583E-03   0.384646E+00   0.483413E+01
   0.217000E+04   0.118767E-03   0.242317E-03   0.384676E+00   0.483413E+01
   0.218000E+04   0.119561E-03   0.244045E-03   0.384682E+00   0.483413E+01
   0.219000E+04   0.120353E-03   0.245772E-03   0.384661E+00   0.483413E+01
   0.220000E+04   0.121146E-03   0.247501E-03   0.384641E+00   0.483413E+01
   0.221000E+04   0.121940E-03   0.249230E-03   0.384643E+00   0.483413E+01
   0.222000E+04   0.122729E-03   0.250954E-03   0.384680E+00   0.483413E+01
   0.223000E+04   0.123517E-03   0.252673E-03   0.384692E+00   0.483413E+01
   0.224000E+04   0.124301E-03   0.254388E-03   0.384681E+00   0.483413E+01
   0.225000E+04   0.125086E-03   0.256105E-03   0.384649E+00   0.483413E+01
   0.226000E+04   0.125870E-03   0.257823E-03   0.384640E+00   0.483413E+01
   0.227000E+04   0.126652E-03   0.259536E-03   0.384667E+00   0.483413E+01
   0.228000E+04   0.127431E-03   0.261245E-03   0.384691E+00   0.483413E+01
   0.229000E+04   0.128207E-03   0.262948E-03   0.384695E+00   0.483413E+01
   0.230000E+04   0.128982E-03   0.264649E-03   0.384669E+00   0.483413E+01
   0.231000E+04   0.129756E-03   0.266350E-03   0.384652E+00   0.483413E+01
   0.232000E+04   0.130528E-03   0.268045E-03   0.384657E+00   0.483413E+01
   0.233000E+04   0.131297E-03   0.269733E-03   0.384686E+00   0.483413E+01
   0.234000E+04   0.132062E-03   0.271415E-03   0.384696E+00   0.483413E+01
   0.235000E+04   0.132825E-03   0.273093E-03   0.384681E+00   0.483413E+01
   0.236000E+04   0.133587E-03   0.274768E-03   0.384662E+00   0.483413E+01
   0.237000E+04   0.134348E-03   0.276441E-03   0.384659E+00   0.483413E+01
   0.238000E+04   0.135103E-03   0.278103E-03   0.384690E+00   0.483413E+01
   0.239000E+04   0.135856E-03   0.279758E-03   0.384699E+00   0.483413E+01
   0.240000E+04   0.136605E-03   0.281406E-03   0.384691E+00   0.483413E+01
   0.241000E+04   0.137354E-03   0.283052E-03   0.384665E+00   0.483413E+01
   0.242000E+04   0.138102E-03   0.284696E-03   0.384659E+00   0.483413E+01
   0.243000E+04   0.138847E-03   0.286332E-03   0.384681E+00   0.483413E+01
   0.244000E+04   0.139587E-03   0.287960E-03   0.384702E+00   0.483413E+01
   0.245000E+04   0.140325E-03   0.289580E-03   0.384704E+00   0.483413E+01
   0.246000E+04   0.141060E-03   0.291196E-03   0.384679E+00   0.483413E+01
   0.247000E+04   0.141795E-03   0.292811E-03   0.384663E+00   0.483413E+01
   0.248000E+04   0.142527E-03   0.294420E-03   0.384668E+00   0.483413E+01
   0.249000E+04   0.143255E-03   0.296020E-03   0.384700E+00   0.483413E+01
   0.250000E+04   0.143981E-03   0.297614E-03   0.384709E+00   0.483413E+01
   0.251000E+04   0.144705E-03   0.299204E-03   0.384694E+00   0.483413E+01
   0.252000E+04   0.145428E-03   0.300793E-03   0.384671E+00   0.483413E+01
   0.253000E+04   0.146149E-03   0.302377E-03   0.384668E+00   0.483413E+01
   0.254000E+04   0.146865E-03   0.303950E-03   0.384698E+00   0.483413E+01
   0.255000E+04   0.147575E-03   0.305513E-03   0.384711E+00   0.483413E+01
   0.256000E+04   0.148282E-03   0.307068E-03   0.384706E+00   0.483413E+01
   0.257000E+04   0.148988E-03   0.308620E-03   0.384677E+00   0.483413E+01
   0.258000E+04   0.149692E-03   0.310169E-03   0.384665E+00   0.483413E+01
   0.259000E+04   0.150393E-03   0.311710E-03   0.384682E+00   0.483413E+01
   0.260000E+04   0.151089E-03   0.313241E-03   0.384712E+00   0.483413E+01
   0.261000E+04   0.151781E-03   0.314763E-03   0.384719E+00   0.483413E+01
   0.262000E+04   0.152471E-03   0.316279E-03   0.384696E+00   0.483413E+01
   0.263000E+04   0.153161E-03   0.317794E-03   0.384672E+00   0.483413E+01
   0.264000E+04   0.153849E-03   0.319304E-03   0.384668E+00   0.483413E+01
   0.265000E+04   0.154532E-03   0.320803E-03   0.384704E+00   0.483413E+01
   0.266000E+04   0.155211E-03   0.322292E-03   0.384719E+00   0.483413E+01
   0.267000E+04   0.155887E-03   0.323775E-03   0.384714E+00   0.483413E+01
   0.268000E+04   0.156563E-03   0.325256E-03   0.384685E+00   0.483413E+01
   0.269000E+04   0.157237E-03   0.326734E-03   0.384674E+00   0.483413E+01
   0.270000E+04   0.157908E-03   0.328203E-03   0.384692E+00   0.483413E+01
   0.271000E+04   0.158573E-03   0.329662E-03   0.384711E+00   0.483413E+01
   0.272000E+04   0.159236E-03   0.331114E-03   0.384716E+00   0.483413E+01
   0.273000E+04   0.159898E-03   0.332564E-03   0.384695E+00   0.483413E+01
   0.274000E+04   0.160560E-03   0.334013E-03   0.384680E+00   0.483413E+01
   0.275000E+04   0.161220E-03   0.335456E-03   0.384683E+00   0.483413E+01
   0.276000E+04   0.161873E-03   0.336886E-03   0.384714E+00   0.483413E+01
   0.277000E+04   0.162520E-03   0.338304E-03   0.384722E+00   0.483413E+01
   0.278000E+04   0.163163E-03   0.339714E-03   0.384709E+00   0.483413E+01
   0.279000E+04   0.163805E-03   0.341119E-03   0.384684E+00   0.483413E+01
   0.280000E+04   0.164445E-03   0.342520E-03   0.384677E+00   0.483413E+01
   0.281000E+04   0.165079E-03   0.343909E-03   0.384704E+00   0.483413E+01
   0.282000E+04   0.165709E-03   0.345286E-03   0.384720E+00   0.483413E+01
   0.283000E+04   0.166334E-03   0.346654E-03   0.384720E+00   0.483413E+01
   0.284000E+04   0.166957E-03   0.348017E-03   0.384696E+00   0.483413E+01
   0.285000E+04   0.167580E-03   0.349377E-03   0.384683E+00   0.483413E+01
   0.286000E+04   0.168200E-03   0.350731E-03   0.384691E+00   0.483413E+01
   0.287000E+04   0.168814E-03   0.352072E-03   0.384717E+00   0.483413E+01
   0.288000E+04   0.169424E-03   0.353404E-03   0.384723E+00   0.483413E+01
   0.289000E+04   0.170032E-03   0.354730E-03   0.384705E+00   0.483413E+01
   0.290000E+04   0.170640E-03   0.356056E-03   0.384686E+00   0.483413E+01
   0.291000E+04   0.171248E-03   0.357379E-03   0.384686E+00   0.483413E+01
   0.292000E+04   0.171850E-03   0.358690E-03   0.384718E+00   0.483413E+01
   0.293000E+04   0.172446E-03   0.359989E-03   0.384728E+00   0.483413E+01
   0.294000E+04   0.173037E-03   0.361277E-03   0.384721E+00   0.483413E+01
   0.295000E+04   0.173626E-03   0.362562E-03   0.384689E+00   0.483413E+01
   0.296000E+04   0.174214E-03   0.363844E-03   0.384679E+00   0.483413E+01
   0.297000E+04   0.174799E-03   0.365118E-03   0.384697E+00   0.483413E+01
   0.298000E+04   0.175377E-03   0.366379E-03   0.384726E+00   0.483413E+01
   0.299000E+04   0.175949E-03   0.367628E-03   0.384733E+00   0.483413E+01
   0.300000E+04   0.176518E-03   0.368869E-03   0.384710E+00   0.483413E+01
   0.301000E+04   0.177086E-03   0.370107E-03   0.384686E+00   0.483413E+01
   0.302000E+04   0.177652E-03   0.371339E-03   0.384682E+00   0.483413E+01
   0.303000E+04   0.178212E-03   0.372558E-03   0.384716E+00   0.483413E+01
   0.304000E+04   0.178766E-03   0.373764E-03   0.384730E+00   0.483413E+01
   0.305000E+04   0.179316E-03   0.374961E-03   0.384726E+00   0.483413E+01
   0.306000E+04   0.179864E-03   0.376154E-03   0.384697E+00   0.483413E+01
   0.307000E+04   0.180412E-03   0.377343E-03   0.384685E+00   0.483413E+01
   0.308000E+04   0.180955E-03   0.378523E-03   0.384702E+00   0.483413E+01
   0.309000E+04   0.181493E-03   0.379691E-03   0.384726E+00   0.483413E+01
   0.310000E+04   0.182025E-03   0.380847E-03   0.384731E+00   0.483413E+01
   0.311000E+04   0.182555E-03   0.381997E-03   0.384708E+00   0.483413E+01
   0.312000E+04   0.183085E-03   0.383148E-03   0.384689E+00   0.483413E+01
   0.313000E+04   0.183615E-03   0.384294E-03   0.384689E+00   0.483413E+01
   0.314000E+04   0.184138E-03   0.385428E-03   0.384722E+00   0.483413E+01
   0.315000E+04   0.184655E-03   0.386549E-03   0.384734E+00   0.483413E+01
   0.316000E+04   0.185165E-03   0.387658E-03   0.384727E+00   0.483413E+01
   0.317000E+04   0.185673E-03   0.388761E-03   0.384698E+00   0.483413E+01
   0.318000E+04   0.186179E-03   0.389860E-03   0.384685E+00   0.483413E+01
   0.319000E+04   0.186681E-03   0.390948E-03   0.384705E+00   0.483413E+01
   0.320000E+04   0.187176E-03   0.392023E-03   0.384725E+00   0.483413E+01
   0.321000E+04   0.187666E-03   0.393085E-03   0.384731E+00   0.483413E+01
   0.322000E+04   0.188152E-03   0.394141E-03   0.384711E+00   0.483413E+01
   0.323000E+04   0.188638E-03   0.395193E-03   0.384695E+00   0.483413E+01
   0.324000E+04   0.189121E-03   0.396239E-03   0.384695E+00   0.483413E+01
   0.325000E+04   0.189598E-03   0.397272E-03   0.384724E+00   0.483413E+01
   0.326000E+04   0.190069E-03   0.398293E-03   0.384730E+00   0.483413E+01
   0.327000E+04   0.190537E-03   0.399304E-03   0.384720E+00   0.483413E+01
   0.328000E+04   0.191003E-03   0.400313E-03   0.384697E+00   0.483413E+01
   0.329000E+04   0.191469E-03   0.401319E-03   0.384691E+00   0.483413E+01
   0.330000E+04   0.191931E-03   0.402317E-03   0.384716E+00   0.483413E+01
   0.331000E+04   0.192389E-03   0.403303E-03   0.384733E+00   0.483413E+01
   0.332000E+04   0.192840E-03   0.404278E-03   0.384733E+00   0.483413E+01
   0.333000E+04   0.193288E-03   0.405246E-03   0.384704E+00   0.483413E+01
   0.334000E+04   0.193736E-03   0.406214E-03   0.384688E+00   0.483413E+01
   0.335000E+04   0.194183E-03   0.407177E-03   0.384694E+00   0.483413E+01
   0.336000E+04   0.194625E-03   0.408130E-03   0.384729E+00   0.483413E+01
   0.337000E+04   0.195060E-03   0.409070E-03   0.384738E+00   0.483413E+01
   0.338000E+04   0.195490E-03   0.410001E-03   0.384725E+00   0.483413E+01
   0.339000E+04   0.195919E-03   0.410927E-03   0.384697E+00   0.483413E+01
   0.340000E+04   0.196345E-03   0.411849E-03   0.384689E+00   0.483413E+01
   0.341000E+04   0.196766E-03   0.412759E-03   0.384714E+00   0.483413E+01
   0.342000E+04   0.197183E-03   0.413658E-03   0.384733E+00   0.483413E+01
   0.343000E+04   0.197594E-03   0.414545E-03   0.384735E+00   0.483413E+01
   0.344000E+04   0.198002E-03   0.415427E-03   0.384708E+00   0.483413E+01
   0.345000E+04   0.198410E-03   0.416305E-03   0.384691E+00   0.483413E+01
   0.346000E+04   0.198815E-03   0.417178E-03   0.384697E+00   0.483413E+01
   0.347000E+04   0.199214E-03   0.418038E-03   0.384730E+00   0.483413E+01
   0.348000E+04   0.199609E-03   0.418886E-03   0.384740E+00   0.483413E+01
   0.349000E+04   0.199999E-03   0.419726E-03   0.384725E+00   0.483413E+01
   0.350000E+04   0.200388E-03   0.420563E-03   0.384696E+00   0.483413E+01
   0.351000E+04   0.200776E-03   0.421398E-03   0.384686E+00   0.483413E+01
   0.352000E+04   0.201162E-03   0.422225E-03   0.384714E+00   0.483413E+01
   0.353000E+04   0.201544E-03   0.423043E-03   0.384736E+00   0.483413E+01
   0.354000E+04   0.201922E-03   0.423852E-03   0.384740E+00   0.483413E+01
   0.355000E+04   0.202296E-03   0.424656E-03   0.384714E+00   0.483413E+01
   0.356000E+04   0.202669E-03   0.425457E-03   0.384693E+00   0.483413E+01
   0.357000E+04   0.203040E-03   0.426252E-03   0.384694E+00   0.483413E+01
   0.358000E+04   0.203406E-03   0.427037E-03   0.384723E+00   0.483413E+01
   0.359000E+04   0.203767E-03   0.427812E-03   0.384736E+00   0.483413E+01
   0.360000E+04   0.204124E-03   0.428578E-03   0.384726E+00   0.483413E+01
   0.361000E+04   0.204479E-03   0.429342E-03   0.384703E+00   0.483413E+01
   0.362000E+04   0.204832E-03   0.430101E-03   0.384694E+00   0.483413E+01
   0.363000E+04   0.205180E-03   0.430849E-03   0.384718E+00   0.483413E+01
   0.364000E+04   0.205524E-03   0.431587E-03   0.384731E+00   0.483413E+01
   0.365000E+04   0.205863E-03   0.432314E-03   0.384733E+00   0.483413E+01
   0.366000E+04   0.206200E-03   0.433037E-03   0.384709E+00   0.483413E+01
   0.367000E+04   0.206536E-03   0.433757E-03   0.384696E+00   0.483413E+01
   0.368000E+04   0.206870E-03   0.434472E-03   0.384701E+00   0.483413E+01
   0.369000E+04   0.207199E-03   0.435175E-03   0.384730E+00   0.483413E+01
   0.370000E+04   0.207524E-03   0.435868E-03   0.384738E+00   0.483413E+01
   0.371000E+04   0.207845E-03   0.436554E-03   0.384724E+00   0.483413E+01
   0.372000E+04   0.208165E-03   0.437237E-03   0.384700E+00   0.483413E+01
   0.373000E+04   0.208485E-03   0.437919E-03   0.384691E+00   0.483413E+01
   0.374000E+04   0.208801E-03   0.438593E-03   0.384719E+00   0.483413E+01
   0.375000E+04   0.209114E-03   0.439260E-03   0.384734E+00   0.483413E+01
   0.376000E+04   0.209425E-03   0.439920E-03   0.384736E+00   0.483413E+01
   0.377000E+04   0.209734E-03   0.440577E-03   0.384710E+00   0.483413E+01
   0.378000E+04   0.210042E-03   0.441233E-03   0.384696E+00   0.483413E+01
   0.379000E+04   0.210347E-03   0.441882E-03   0.384702E+00   0.483413E+01
   0.380000E+04   0.210646E-03   0.442519E-03   0.384730E+00   0.483413E+01
   0.381000E+04   0.210941E-03   0.443147E-03   0.384737E+00   0.483413E+01
   0.382000E+04   0.211232E-03   0.443768E-03   0.384721E+00   0.483413E+01
   0.383000E+04   0.211522E-03   0.444386E-03   0.384697E+00   0.483413E+01
   0.384000E+04   0.211811E-03   0.445001E-03   0.384692E+00   0.483413E+01
   0.385000E+04   0.212094E-03   0.445605E-03   0.384722E+00   0.483413E+01
   0.386000E+04   0.212373E-03   0.446199E-03   0.384739E+00   0.483413E+01
   0.387000E+04   0.212647E-03   0.446784E-03   0.384738E+00   0.483413E+01
   0.388000E+04   0.212921E-03   0.447366E-03   0.384708E+00   0.483413E+01
   0.389000E+04   0.213194E-03   0.447947E-03   0.384689E+00   0.483413E+01
   0.390000E+04   0.213466E-03   0.448523E-03   0.384697E+00   0.483413E+01
   0.391000E+04   0.213733E-03   0.449089E-03   0.384730E+00   0.483413E+01
   0.392000E+04   0.213997E-03   0.449646E-03   0.384742E+00   0.483413E+01
   0.393000E+04   0.214258E-03   0.450200E-03   0.384728E+00   0.483413E+01