title="breakthrough data set at     5 wells"
variables="time(days)","cavg","cpk","upk","zswi"
zone i=     1295
   0.100000E+02   0.463855E-11   0.104032E-10   0.489926E+00   0.484151E+01
   0.200000E+02   0.184185E-10   0.416236E-10   0.399344E+00   0.482317E+01
   0.300000E+02   0.483290E-10   0.109056E-09   0.398655E+00   0.482317E+01
   0.400000E+02   0.105566E-09   0.237238E-09   0.398452E+00   0.482317E+01
   0.500000E+02   0.206410E-09   0.461344E-09   0.398296E+00   0.482317E+01
   0.600000E+02   0.373637E-09   0.829852E-09   0.398150E+00   0.482317E+01
   0.700000E+02   0.637877E-09   0.140696E-08   0.398050E+00   0.482317E+01
   0.800000E+02   0.103921E-08   0.227537E-08   0.397963E+00   0.482317E+01
   0.900000E+02   0.162860E-08   0.353853E-08   0.397887E+00   0.482317E+01
   0.100000E+03   0.246925E-08   0.532270E-08   0.397819E+00   0.482317E+01
   0.110000E+03   0.363469E-08   0.777159E-08   0.397829E+00   0.482317E+01
   0.120000E+03   0.521697E-08   0.110641E-07   0.397758E+00   0.482317E+01
   0.130000E+03   0.732089E-08   0.153996E-07   0.397696E+00   0.482317E+01
   0.140000E+03   0.100659E-07   0.210020E-07   0.397642E+00   0.482317E+01
   0.150000E+03   0.135862E-07   0.281179E-07   0.397593E+00   0.482317E+01
   0.160000E+03   0.180295E-07   0.370154E-07   0.397548E+00   0.482317E+01
   0.170000E+03   0.235569E-07   0.479807E-07   0.397506E+00   0.482317E+01
   0.180000E+03   0.303410E-07   0.613159E-07   0.397468E+00   0.482317E+01
   0.190000E+03   0.385650E-07   0.773349E-07   0.397432E+00   0.482317E+01
   0.200000E+03   0.484203E-07   0.963604E-07   0.397398E+00   0.482317E+01
   0.210000E+03   0.601055E-07   0.118720E-06   0.397366E+00   0.482317E+01
   0.220000E+03   0.738237E-07   0.144741E-06   0.397335E+00   0.482317E+01
   0.230000E+03   0.897809E-07   0.174750E-06   0.397306E+00   0.482317E+01
   0.240000E+03   0.108184E-06   0.209065E-06   0.397278E+00   0.482317E+01
   0.250000E+03   0.129238E-06   0.247995E-06   0.397252E+00   0.482317E+01
   0.260000E+03   0.153147E-06   0.291835E-06   0.397226E+00   0.482317E+01
   0.270000E+03   0.180106E-06   0.340866E-06   0.397202E+00   0.482317E+01
   0.280000E+03   0.210308E-06   0.395348E-06   0.397178E+00   0.482317E+01
   0.290000E+03   0.243935E-06   0.455521E-06   0.397156E+00   0.482317E+01
   0.300000E+03   0.281160E-06   0.521605E-06   0.397134E+00   0.482317E+01
   0.310000E+03   0.322145E-06   0.593792E-06   0.397113E+00   0.482317E+01
   0.320000E+03   0.367041E-06   0.672251E-06   0.397093E+00   0.482317E+01
   0.330000E+03   0.415984E-06   0.757127E-06   0.397074E+00   0.482317E+01
   0.340000E+03   0.469100E-06   0.848537E-06   0.397056E+00   0.482317E+01
   0.350000E+03   0.526499E-06   0.946571E-06   0.397038E+00   0.482317E+01
   0.360000E+03   0.588275E-06   0.105130E-05   0.397021E+00   0.482317E+01
   0.370000E+03   0.654512E-06   0.116275E-05   0.397005E+00   0.482317E+01
   0.380000E+03   0.725275E-06   0.128095E-05   0.396989E+00   0.482317E+01
   0.390000E+03   0.800618E-06   0.140589E-05   0.396974E+00   0.482317E+01
   0.400000E+03   0.880579E-06   0.153754E-05   0.396960E+00   0.482317E+01
   0.410000E+03   0.965182E-06   0.167584E-05   0.396946E+00   0.482317E+01
   0.420000E+03   0.105444E-05   0.182073E-05   0.396933E+00   0.482317E+01
   0.430000E+03   0.114835E-05   0.197210E-05   0.396920E+00   0.482317E+01
   0.440000E+03   0.124690E-05   0.212985E-05   0.396907E+00   0.482317E+01
   0.450000E+03   0.135007E-05   0.229386E-05   0.396895E+00   0.482317E+01
   0.460000E+03   0.145782E-05   0.246398E-05   0.396884E+00   0.482317E+01
   0.470000E+03   0.157010E-05   0.264006E-05   0.396873E+00   0.482317E+01
   0.480000E+03   0.168686E-05   0.282194E-05   0.396862E+00   0.482317E+01
   0.490000E+03   0.180804E-05   0.300943E-05   0.396852E+00   0.482317E+01
   0.500000E+03   0.193357E-05   0.320236E-05   0.396842E+00   0.482317E+01
   0.510000E+03   0.206337E-05   0.340052E-05   0.396833E+00   0.482317E+01
   0.520000E+03   0.219735E-05   0.360372E-05   0.396823E+00   0.482317E+01
   0.530000E+03   0.233543E-05   0.381175E-05   0.396815E+00   0.482317E+01
   0.540000E+03   0.247751E-05   0.402441E-05   0.396806E+00   0.482317E+01
   0.550000E+03   0.262348E-05   0.424147E-05   0.396798E+00   0.482317E+01
   0.560000E+03   0.277324E-05   0.446273E-05   0.396790E+00   0.482317E+01
   0.570000E+03   0.292669E-05   0.468796E-05   0.396783E+00   0.482317E+01
   0.580000E+03   0.308370E-05   0.491695E-05   0.396775E+00   0.482317E+01
   0.590000E+03   0.324417E-05   0.514948E-05   0.396769E+00   0.482317E+01
   0.600000E+03   0.340796E-05   0.538532E-05   0.396762E+00   0.482317E+01
   0.610000E+03   0.357497E-05   0.562427E-05   0.396756E+00   0.482317E+01
   0.620000E+03   0.374506E-05   0.586611E-05   0.396750E+00   0.482317E+01
   0.630000E+03   0.391811E-05   0.611062E-05   0.396744E+00   0.482317E+01
   0.640000E+03   0.409398E-05   0.635760E-05   0.396738E+00   0.482317E+01
   0.650000E+03   0.427256E-05   0.660685E-05   0.396733E+00   0.482317E+01
   0.660000E+03   0.445372E-05   0.685815E-05   0.396728E+00   0.482317E+01
   0.670000E+03   0.463731E-05   0.711131E-05   0.396723E+00   0.482317E+01
   0.680000E+03   0.482322E-05   0.736614E-05   0.396719E+00   0.482317E+01
   0.690000E+03   0.501130E-05   0.762354E-05   0.396715E+00   0.482317E+01
   0.700000E+03   0.520145E-05   0.788863E-05   0.396711E+00   0.482317E+01
   0.710000E+03   0.539352E-05   0.815507E-05   0.396707E+00   0.482317E+01
   0.720000E+03   0.558739E-05   0.842266E-05   0.396703E+00   0.482317E+01
   0.730000E+03   0.578293E-05   0.869124E-05   0.396699E+00   0.482317E+01
   0.740000E+03   0.598003E-05   0.896060E-05   0.396696E+00   0.482317E+01
   0.750000E+03   0.617857E-05   0.923058E-05   0.396693E+00   0.482317E+01
   0.760000E+03   0.637842E-05   0.950101E-05   0.396690E+00   0.482317E+01
   0.770000E+03   0.657947E-05   0.977172E-05   0.396687E+00   0.482317E+01
   0.780000E+03   0.678162E-05   0.100426E-04   0.396684E+00   0.482317E+01
   0.790000E+03   0.698474E-05   0.103134E-04   0.396681E+00   0.482317E+01
   0.800000E+03   0.718875E-05   0.105840E-04   0.396678E+00   0.482317E+01
   0.810000E+03   0.739353E-05   0.108543E-04   0.396676E+00   0.482317E+01
   0.820000E+03   0.759898E-05   0.111242E-04   0.396673E+00   0.482317E+01
   0.830000E+03   0.780501E-05   0.113935E-04   0.396671E+00   0.482317E+01
   0.840000E+03   0.801152E-05   0.116620E-04   0.396668E+00   0.482317E+01
   0.850000E+03   0.821842E-05   0.119298E-04   0.396666E+00   0.482317E+01
   0.860000E+03   0.842561E-05   0.121965E-04   0.396664E+00   0.482317E+01
   0.870000E+03   0.863301E-05   0.124622E-04   0.396662E+00   0.482317E+01
   0.880000E+03   0.884051E-05   0.127267E-04   0.396660E+00   0.482317E+01
   0.890000E+03   0.904803E-05   0.129900E-04   0.396658E+00   0.482317E+01
   0.900000E+03   0.925547E-05   0.132518E-04   0.396656E+00   0.482317E+01
   0.910000E+03   0.946274E-05   0.135121E-04   0.396655E+00   0.482317E+01
   0.920000E+03   0.966973E-05   0.137707E-04   0.396653E+00   0.482317E+01
   0.930000E+03   0.987635E-05   0.140277E-04   0.396652E+00   0.482317E+01
   0.940000E+03   0.100825E-04   0.142828E-04   0.396651E+00   0.482317E+01
   0.950000E+03   0.102881E-04   0.145359E-04   0.396649E+00   0.482317E+01
   0.960000E+03   0.104930E-04   0.147871E-04   0.396648E+00   0.482317E+01
   0.970000E+03   0.106971E-04   0.150361E-04   0.396647E+00   0.482317E+01
   0.980000E+03   0.109003E-04   0.152829E-04   0.396646E+00   0.482317E+01
   0.990000E+03   0.111026E-04   0.155273E-04   0.396645E+00   0.482317E+01
   0.100000E+04   0.113038E-04   0.157694E-04   0.396644E+00   0.482317E+01
   0.101000E+04   0.115037E-04   0.160090E-04   0.396643E+00   0.482317E+01
   0.102000E+04   0.117024E-04   0.162461E-04   0.396642E+00   0.482317E+01
   0.103000E+04   0.118997E-04   0.164805E-04   0.396641E+00   0.482317E+01
   0.104000E+04   0.120956E-04   0.167122E-04   0.396641E+00   0.482317E+01
   0.105000E+04   0.122898E-04   0.169412E-04   0.396640E+00   0.482317E+01
   0.106000E+04   0.124825E-04   0.171673E-04   0.396639E+00   0.482317E+01
   0.107000E+04   0.126734E-04   0.173906E-04   0.396639E+00   0.482317E+01
   0.108000E+04   0.128624E-04   0.176109E-04   0.396638E+00   0.482317E+01
   0.109000E+04   0.130497E-04   0.178283E-04   0.396638E+00   0.482317E+01
   0.110000E+04   0.132349E-04   0.180427E-04   0.396638E+00   0.482317E+01
   0.111000E+04   0.134182E-04   0.182539E-04   0.396638E+00   0.482317E+01
   0.112000E+04   0.135993E-04   0.184622E-04   0.396638E+00   0.482317E+01
   0.113000E+04   0.137784E-04   0.186672E-04   0.396638E+00   0.482317E+01
   0.114000E+04   0.139553E-04   0.188692E-04   0.396638E+00   0.482317E+01
   0.115000E+04   0.141299E-04   0.190680E-04   0.396638E+00   0.482317E+01
   0.116000E+04   0.143023E-04   0.192635E-04   0.396638E+00   0.482317E+01
   0.117000E+04   0.144723E-04   0.194559E-04   0.396639E+00   0.482317E+01
   0.118000E+04   0.146400E-04   0.196450E-04   0.396639E+00   0.482317E+01
   0.119000E+04   0.148053E-04   0.198309E-04   0.396640E+00   0.482317E+01
   0.120000E+04   0.149682E-04   0.200135E-04   0.396640E+00   0.482317E+01
   0.121000E+04   0.151286E-04   0.201928E-04   0.396640E+00   0.482317E+01
   0.122000E+04   0.152866E-04   0.203689E-04   0.396641E+00   0.482317E+01
   0.123000E+04   0.154420E-04   0.205416E-04   0.396641E+00   0.482317E+01
   0.124000E+04   0.155949E-04   0.207111E-04   0.396642E+00   0.482317E+01
   0.125000E+04   0.157452E-04   0.208773E-04   0.396642E+00   0.482317E+01
   0.126000E+04   0.158930E-04   0.210402E-04   0.396643E+00   0.482317E+01
   0.127000E+04   0.160382E-04   0.211999E-04   0.396643E+00   0.482317E+01
   0.128000E+04   0.161808E-04   0.213563E-04   0.396644E+00   0.482317E+01
   0.129000E+04   0.163208E-04   0.215094E-04   0.396644E+00   0.482317E+01
   0.130000E+04   0.164582E-04   0.216593E-04   0.396645E+00   0.482317E+01
   0.131000E+04   0.165931E-04   0.218060E-04   0.396645E+00   0.482317E+01
   0.132000E+04   0.167254E-04   0.219494E-04   0.396646E+00   0.482317E+01
   0.133000E+04   0.168552E-04   0.220897E-04   0.396646E+00   0.482317E+01
   0.134000E+04   0.169824E-04   0.222269E-04   0.396647E+00   0.482317E+01
   0.135000E+04   0.171071E-04   0.223609E-04   0.396647E+00   0.482317E+01
   0.136000E+04   0.172293E-04   0.224918E-04   0.396648E+00   0.482317E+01
   0.137000E+04   0.173491E-04   0.226197E-04   0.396648E+00   0.482317E+01
   0.138000E+04   0.174664E-04   0.227445E-04   0.396648E+00   0.482317E+01
   0.139000E+04   0.175814E-04   0.228664E-04   0.396649E+00   0.482317E+01
   0.140000E+04   0.176940E-04   0.229852E-04   0.396649E+00   0.482317E+01
   0.141000E+04   0.178043E-04   0.231096E-04   0.396650E+00   0.482317E+01
   0.142000E+04   0.179124E-04   0.232435E-04   0.396650E+00   0.482317E+01
   0.143000E+04   0.180182E-04   0.233750E-04   0.396651E+00   0.482317E+01
   0.144000E+04   0.181218E-04   0.235043E-04   0.396651E+00   0.482317E+01
   0.145000E+04   0.182232E-04   0.236312E-04   0.396652E+00   0.482317E+01
   0.146000E+04   0.183225E-04   0.237558E-04   0.396652E+00   0.482317E+01
   0.147000E+04   0.184197E-04   0.238781E-04   0.396653E+00   0.482317E+01
   0.148000E+04   0.185148E-04   0.239982E-04   0.396653E+00   0.482317E+01
   0.149000E+04   0.186079E-04   0.241160E-04   0.396653E+00   0.482317E+01
   0.150000E+04   0.186989E-04   0.242315E-04   0.396654E+00   0.482317E+01
   0.151000E+04   0.187879E-04   0.243449E-04   0.396654E+00   0.482317E+01
   0.152000E+04   0.188749E-04   0.244560E-04   0.396655E+00   0.482317E+01
   0.153000E+04   0.189599E-04   0.245649E-04   0.396655E+00   0.482317E+01
   0.154000E+04   0.190428E-04   0.246717E-04   0.396656E+00   0.482317E+01
   0.155000E+04   0.191236E-04   0.247762E-04   0.396656E+00   0.482317E+01
   0.156000E+04   0.192024E-04   0.248786E-04   0.396657E+00   0.482317E+01
   0.157000E+04   0.192790E-04   0.249789E-04   0.396657E+00   0.482317E+01
   0.158000E+04   0.193534E-04   0.250770E-04   0.396658E+00   0.482317E+01
   0.159000E+04   0.194256E-04   0.251730E-04   0.396658E+00   0.482317E+01
   0.160000E+04   0.194956E-04   0.252669E-04   0.396659E+00   0.482317E+01
   0.161000E+04   0.195631E-04   0.253587E-04   0.396659E+00   0.482317E+01
   0.162000E+04   0.196283E-04   0.254484E-04   0.396660E+00   0.482317E+01
   0.163000E+04   0.196909E-04   0.255360E-04   0.396660E+00   0.482317E+01
   0.164000E+04   0.197509E-04   0.256215E-04   0.396661E+00   0.482317E+01
   0.165000E+04   0.198082E-04   0.257050E-04   0.396661E+00   0.482317E+01
   0.166000E+04   0.198627E-04   0.257864E-04   0.396662E+00   0.482317E+01
   0.167000E+04   0.199143E-04   0.258658E-04   0.396662E+00   0.482317E+01
   0.168000E+04   0.199630E-04   0.259432E-04   0.396663E+00   0.482317E+01
   0.169000E+04   0.200085E-04   0.260185E-04   0.396663E+00   0.482317E+01
   0.170000E+04   0.200509E-04   0.260919E-04   0.396664E+00   0.482317E+01
   0.171000E+04   0.200900E-04   0.261632E-04   0.396665E+00   0.482317E+01
   0.172000E+04   0.201258E-04   0.262326E-04   0.396665E+00   0.482317E+01
   0.173000E+04   0.201581E-04   0.263000E-04   0.396666E+00   0.482317E+01
   0.174000E+04   0.201870E-04   0.263655E-04   0.396666E+00   0.482317E+01
   0.175000E+04   0.202123E-04   0.264290E-04   0.396667E+00   0.482317E+01
   0.176000E+04   0.202340E-04   0.264906E-04   0.396668E+00   0.482317E+01
   0.177000E+04   0.202521E-04   0.265503E-04   0.396668E+00   0.482317E+01
   0.178000E+04   0.202666E-04   0.266081E-04   0.396669E+00   0.482317E+01
   0.179000E+04   0.202775E-04   0.266641E-04   0.396669E+00   0.482317E+01
   0.180000E+04   0.202847E-04   0.267182E-04   0.396670E+00   0.482317E+01
   0.181000E+04   0.202884E-04   0.267704E-04   0.396670E+00   0.482317E+01
   0.182000E+04   0.202886E-04   0.268208E-04   0.396671E+00   0.482317E+01
   0.183000E+04   0.202853E-04   0.268694E-04   0.396671E+00   0.482317E+01
   0.184000E+04   0.202787E-04   0.269163E-04   0.396672E+00   0.482317E+01
   0.185000E+04   0.202689E-04   0.269613E-04   0.396672E+00   0.482317E+01
   0.186000E+04   0.202559E-04   0.270047E-04   0.396673E+00   0.482317E+01
   0.187000E+04   0.202401E-04   0.270463E-04   0.396673E+00   0.482317E+01
   0.188000E+04   0.202215E-04   0.270862E-04   0.396673E+00   0.482317E+01
   0.189000E+04   0.202004E-04   0.271245E-04   0.396674E+00   0.482317E+01
   0.190000E+04   0.201770E-04   0.271611E-04   0.396674E+00   0.482317E+01
   0.191000E+04   0.201516E-04   0.271961E-04   0.396674E+00   0.482317E+01
   0.192000E+04   0.201243E-04   0.272295E-04   0.396675E+00   0.482317E+01
   0.193000E+04   0.200955E-04   0.272614E-04   0.396675E+00   0.482317E+01
   0.194000E+04   0.200654E-04   0.272917E-04   0.396675E+00   0.482317E+01
   0.195000E+04   0.200344E-04   0.273204E-04   0.396675E+00   0.482317E+01
   0.196000E+04   0.200027E-04   0.273478E-04   0.396676E+00   0.482317E+01
   0.197000E+04   0.199707E-04   0.273736E-04   0.396676E+00   0.482317E+01
   0.198000E+04   0.199387E-04   0.273981E-04   0.396676E+00   0.482317E+01
   0.199000E+04   0.199069E-04   0.274212E-04   0.396676E+00   0.482317E+01
   0.200000E+04   0.198756E-04   0.274430E-04   0.396677E+00   0.482317E+01
   0.201000E+04   0.198451E-04   0.274634E-04   0.396677E+00   0.482317E+01
   0.202000E+04   0.198157E-04   0.274827E-04   0.396677E+00   0.482317E+01
   0.203000E+04   0.197876E-04   0.275007E-04   0.396677E+00   0.482317E+01
   0.204000E+04   0.197611E-04   0.275175E-04   0.396677E+00   0.482317E+01
   0.205000E+04   0.197363E-04   0.275332E-04   0.396677E+00   0.482317E+01
   0.206000E+04   0.197134E-04   0.275479E-04   0.396677E+00   0.482317E+01
   0.207000E+04   0.196925E-04   0.275615E-04   0.396678E+00   0.482317E+01
   0.208000E+04   0.196739E-04   0.275742E-04   0.396678E+00   0.482317E+01
   0.209000E+04   0.196576E-04   0.275859E-04   0.396678E+00   0.482317E+01
   0.210000E+04   0.196436E-04   0.275967E-04   0.396678E+00   0.482317E+01
   0.211000E+04   0.196321E-04   0.276067E-04   0.396678E+00   0.482317E+01
   0.212000E+04   0.196230E-04   0.276159E-04   0.396678E+00   0.482317E+01
   0.213000E+04   0.196163E-04   0.276243E-04   0.396678E+00   0.482317E+01
   0.214000E+04   0.196120E-04   0.276320E-04   0.396678E+00   0.482317E+01
   0.215000E+04   0.196101E-04   0.276391E-04   0.396678E+00   0.482317E+01
   0.216000E+04   0.196104E-04   0.276455E-04   0.396679E+00   0.482317E+01
   0.217000E+04   0.196128E-04   0.276513E-04   0.396679E+00   0.482317E+01
   0.218000E+04   0.196173E-04   0.276566E-04   0.396679E+00   0.482317E+01
   0.219000E+04   0.196236E-04   0.276613E-04   0.396679E+00   0.482317E+01
   0.220000E+04   0.196316E-04   0.276656E-04   0.396679E+00   0.482317E+01
   0.221000E+04   0.196410E-04   0.276694E-04   0.396679E+00   0.482317E+01
   0.222000E+04   0.196517E-04   0.276728E-04   0.396680E+00   0.482317E+01
   0.223000E+04   0.196634E-04   0.276758E-04   0.396680E+00   0.482317E+01
   0.224000E+04   0.196759E-04   0.276784E-04   0.396680E+00   0.482317E+01
   0.225000E+04   0.196890E-04   0.276807E-04   0.396680E+00   0.482317E+01
   0.226000E+04   0.197022E-04   0.276827E-04   0.396680E+00   0.482317E+01
   0.227000E+04   0.197155E-04   0.276843E-04   0.396681E+00   0.482317E+01
   0.228000E+04   0.197284E-04   0.276857E-04   0.396681E+00   0.482317E+01
   0.229000E+04   0.197408E-04   0.276868E-04   0.396681E+00   0.482317E+01
   0.230000E+04   0.197524E-04   0.276876E-04   0.396681E+00   0.482317E+01
   0.231000E+04   0.197628E-04   0.276882E-04   0.396682E+00   0.482317E+01
   0.232000E+04   0.197719E-04   0.276886E-04   0.396682E+00   0.482317E+01
   0.233000E+04   0.197795E-04   0.276888E-04   0.396682E+00   0.482317E+01
   0.234000E+04   0.197852E-04   0.276887E-04   0.396683E+00   0.482317E+01
   0.235000E+04   0.197890E-04   0.276885E-04   0.396683E+00   0.482317E+01
   0.236000E+04   0.197905E-04   0.276880E-04   0.396683E+00   0.482317E+01
   0.237000E+04   0.197897E-04   0.276873E-04   0.396684E+00   0.482317E+01
   0.238000E+04   0.197864E-04   0.276865E-04   0.396684E+00   0.482317E+01
   0.239000E+04   0.197804E-04   0.276855E-04   0.396684E+00   0.482317E+01
   0.240000E+04   0.197717E-04   0.276842E-04   0.396684E+00   0.482317E+01
   0.241000E+04   0.197601E-04   0.276828E-04   0.396685E+00   0.482317E+01
   0.242000E+04   0.197456E-04   0.276812E-04   0.396685E+00   0.482317E+01
   0.243000E+04   0.197280E-04   0.276794E-04   0.396685E+00   0.482317E+01
   0.244000E+04   0.197074E-04   0.276774E-04   0.396686E+00   0.482317E+01
   0.245000E+04   0.196837E-04   0.276752E-04   0.396686E+00   0.482317E+01
   0.246000E+04   0.196569E-04   0.276729E-04   0.396686E+00   0.482317E+01
   0.247000E+04   0.196271E-04   0.276703E-04   0.396687E+00   0.482317E+01
   0.248000E+04   0.195942E-04   0.276675E-04   0.396687E+00   0.482317E+01
   0.249000E+04   0.195583E-04   0.276645E-04   0.396687E+00   0.482317E+01
   0.250000E+04   0.195195E-04   0.276614E-04   0.396688E+00   0.482317E+01
   0.251000E+04   0.194778E-04   0.276580E-04   0.396688E+00   0.482317E+01
   0.252000E+04   0.194335E-04   0.276544E-04   0.396688E+00   0.482317E+01
   0.253000E+04   0.193864E-04   0.276506E-04   0.396689E+00   0.482317E+01
   0.254000E+04   0.193369E-04   0.276466E-04   0.396689E+00   0.482317E+01
   0.255000E+04   0.192851E-04   0.276424E-04   0.396689E+00   0.482317E+01
   0.256000E+04   0.192310E-04   0.276380E-04   0.396690E+00   0.482317E+01
   0.257000E+04   0.191749E-04   0.276333E-04   0.396690E+00   0.482317E+01
   0.258000E+04   0.191169E-04   0.276284E-04   0.396690E+00   0.482317E+01
   0.259000E+04   0.190571E-04   0.276233E-04   0.396690E+00   0.482317E+01
   0.260000E+04   0.189958E-04   0.276179E-04   0.396691E+00   0.482317E+01
   0.261000E+04   0.189331E-04   0.276123E-04   0.396691E+00   0.482317E+01
   0.262000E+04   0.188693E-04   0.276065E-04   0.396691E+00   0.482317E+01
   0.263000E+04   0.188043E-04   0.276005E-04   0.396691E+00   0.482317E+01
   0.264000E+04   0.187386E-04   0.275942E-04   0.396691E+00   0.482317E+01
   0.265000E+04   0.186721E-04   0.275877E-04   0.396692E+00   0.482317E+01
   0.266000E+04   0.186051E-04   0.275810E-04   0.396692E+00   0.482317E+01
   0.267000E+04   0.185378E-04   0.275741E-04   0.396692E+00   0.482317E+01
   0.268000E+04   0.184704E-04   0.275670E-04   0.396692E+00   0.482317E+01
   0.269000E+04   0.184029E-04   0.275597E-04   0.396692E+00   0.482317E+01
   0.270000E+04   0.183356E-04   0.275522E-04   0.396692E+00   0.482317E+01
   0.271000E+04   0.182685E-04   0.275445E-04   0.396692E+00   0.482317E+01
   0.272000E+04   0.182020E-04   0.275368E-04   0.396693E+00   0.482317E+01
   0.273000E+04   0.181360E-04   0.275288E-04   0.396693E+00   0.482317E+01
   0.274000E+04   0.180708E-04   0.275208E-04   0.396693E+00   0.482317E+01
   0.275000E+04   0.180064E-04   0.275126E-04   0.396693E+00   0.482317E+01
   0.276000E+04   0.179431E-04   0.275044E-04   0.396693E+00   0.482317E+01
   0.277000E+04   0.178808E-04   0.274961E-04   0.396693E+00   0.482317E+01
   0.278000E+04   0.178198E-04   0.274878E-04   0.396694E+00   0.482317E+01
   0.279000E+04   0.177601E-04   0.274795E-04   0.396694E+00   0.482317E+01
   0.280000E+04   0.177018E-04   0.274711E-04   0.396694E+00   0.482317E+01
   0.281000E+04   0.176451E-04   0.274628E-04   0.396694E+00   0.482317E+01
   0.282000E+04   0.175899E-04   0.274544E-04   0.396694E+00   0.482317E+01
   0.283000E+04   0.175365E-04   0.274462E-04   0.396694E+00   0.482317E+01
   0.284000E+04   0.174848E-04   0.274380E-04   0.396694E+00   0.482317E+01
   0.285000E+04   0.174350E-04   0.274299E-04   0.396695E+00   0.482317E+01
   0.286000E+04   0.173870E-04   0.274219E-04   0.396695E+00   0.482317E+01
   0.287000E+04   0.173411E-04   0.274140E-04   0.396695E+00   0.482317E+01
   0.288000E+04   0.172971E-04   0.274063E-04   0.396695E+00   0.482317E+01
   0.289000E+04   0.172551E-04   0.273987E-04   0.396695E+00   0.482317E+01
   0.290000E+04   0.172153E-04   0.273913E-04   0.396695E+00   0.482317E+01
   0.291000E+04   0.171775E-04   0.273840E-04   0.396696E+00   0.482317E+01
   0.292000E+04   0.171419E-04   0.273770E-04   0.396696E+00   0.482317E+01
   0.293000E+04   0.171085E-04   0.273702E-04   0.396696E+00   0.482317E+01
   0.294000E+04   0.170773E-04   0.273636E-04   0.396696E+00   0.482317E+01
   0.295000E+04   0.170482E-04   0.273572E-04   0.396696E+00   0.482317E+01
   0.296000E+04   0.170214E-04   0.273511E-04   0.396696E+00   0.482317E+01
   0.297000E+04   0.169967E-04   0.273452E-04   0.396696E+00   0.482317E+01
   0.298000E+04   0.169743E-04   0.273396E-04   0.396697E+00   0.482317E+01
   0.299000E+04   0.169541E-04   0.273342E-04   0.396697E+00   0.482317E+01
   0.300000E+04   0.169361E-04   0.273292E-04   0.396697E+00   0.482317E+01
   0.301000E+04   0.169203E-04   0.273244E-04   0.396697E+00   0.482317E+01
   0.302000E+04   0.169066E-04   0.273199E-04   0.396697E+00   0.482317E+01
   0.303000E+04   0.168951E-04   0.273157E-04   0.396697E+00   0.482317E+01
   0.304000E+04   0.168857E-04   0.273118E-04   0.396697E+00   0.482317E+01
   0.305000E+04   0.168784E-04   0.273082E-04   0.396697E+00   0.482317E+01
   0.306000E+04   0.168732E-04   0.273049E-04   0.396698E+00   0.482317E+01
   0.307000E+04   0.168701E-04   0.273019E-04   0.396698E+00   0.482317E+01
   0.308000E+04   0.168690E-04   0.272993E-04   0.396698E+00   0.482317E+01
   0.309000E+04   0.168698E-04   0.272969E-04   0.396698E+00   0.482317E+01
   0.310000E+04   0.168726E-04   0.272949E-04   0.396698E+00   0.482317E+01
   0.311000E+04   0.168774E-04   0.272932E-04   0.396698E+00   0.482317E+01
   0.312000E+04   0.168839E-04   0.272917E-04   0.396698E+00   0.482317E+01
   0.313000E+04   0.168924E-04   0.272906E-04   0.396699E+00   0.482317E+01
   0.314000E+04   0.169026E-04   0.272899E-04   0.396699E+00   0.482317E+01
   0.315000E+04   0.169146E-04   0.272894E-04   0.396699E+00   0.482317E+01
   0.316000E+04   0.169283E-04   0.272892E-04   0.396699E+00   0.482317E+01
   0.317000E+04   0.169437E-04   0.272894E-04   0.396699E+00   0.482317E+01
   0.318000E+04   0.169607E-04   0.272898E-04   0.396699E+00   0.482317E+01
   0.319000E+04   0.169793E-04   0.272905E-04   0.396699E+00   0.482317E+01
   0.320000E+04   0.169994E-04   0.272916E-04   0.396699E+00   0.482317E+01
   0.321000E+04   0.170210E-04   0.272929E-04   0.396699E+00   0.482317E+01
   0.322000E+04   0.170441E-04   0.272945E-04   0.396700E+00   0.482317E+01
   0.323000E+04   0.170686E-04   0.272964E-04   0.396700E+00   0.482317E+01
   0.324000E+04   0.170945E-04   0.272985E-04   0.396700E+00   0.482317E+01
   0.325000E+04   0.171217E-04   0.273010E-04   0.396700E+00   0.482317E+01
   0.326000E+04   0.171502E-04   0.273037E-04   0.396700E+00   0.482317E+01
   0.327000E+04   0.171800E-04   0.273066E-04   0.396700E+00   0.482317E+01
   0.328000E+04   0.172109E-04   0.273099E-04   0.396700E+00   0.482317E+01
   0.329000E+04   0.172430E-04   0.273133E-04   0.396700E+00   0.482317E+01
   0.330000E+04   0.172762E-04   0.273170E-04   0.396700E+00   0.482317E+01
   0.331000E+04   0.173105E-04   0.273210E-04   0.396700E+00   0.482317E+01
   0.332000E+04   0.173458E-04   0.273252E-04   0.396701E+00   0.482317E+01
   0.333000E+04   0.173822E-04   0.273296E-04   0.396701E+00   0.482317E+01
   0.334000E+04   0.174194E-04   0.273343E-04   0.396701E+00   0.482317E+01
   0.335000E+04   0.174576E-04   0.273392E-04   0.396701E+00   0.482317E+01
   0.336000E+04   0.174966E-04   0.273443E-04   0.396701E+00   0.482317E+01
   0.337000E+04   0.175364E-04   0.273496E-04   0.396701E+00   0.482317E+01
   0.338000E+04   0.175771E-04   0.273551E-04   0.396701E+00   0.482317E+01
   0.339000E+04   0.176184E-04   0.273608E-04   0.396701E+00   0.482317E+01
   0.340000E+04   0.176605E-04   0.273667E-04   0.396701E+00   0.482317E+01
   0.341000E+04   0.177032E-04   0.273728E-04   0.396701E+00   0.482317E+01
   0.342000E+04   0.177466E-04   0.273791E-04   0.396701E+00   0.482317E+01
   0.343000E+04   0.177906E-04   0.273855E-04   0.396701E+00   0.482317E+01
   0.344000E+04   0.178351E-04   0.273922E-04   0.396701E+00   0.482317E+01
   0.345000E+04   0.178801E-04   0.273990E-04   0.396702E+00   0.482317E+01
   0.346000E+04   0.179256E-04   0.274060E-04   0.396702E+00   0.482317E+01
   0.347000E+04   0.179716E-04   0.274131E-04   0.396702E+00   0.482317E+01
   0.348000E+04   0.180179E-04   0.274204E-04   0.396702E+00   0.482317E+01
   0.349000E+04   0.180647E-04   0.274279E-04   0.396702E+00   0.482317E+01
   0.350000E+04   0.181118E-04   0.274355E-04   0.396702E+00   0.482317E+01
   0.351000E+04   0.181592E-04   0.274433E-04   0.396702E+00   0.482317E+01
   0.352000E+04   0.182069E-04   0.274512E-04   0.396702E+00   0.482317E+01
   0.353000E+04   0.182549E-04   0.274592E-04   0.396702E+00   0.482317E+01
   0.354000E+04   0.183031E-04   0.274674E-04   0.396702E+00   0.482317E+01
   0.355000E+04   0.183515E-04   0.274758E-04   0.396702E+00   0.482317E+01
   0.356000E+04   0.184001E-04   0.274842E-04   0.396702E+00   0.482317E+01
   0.357000E+04   0.184488E-04   0.274928E-04   0.396702E+00   0.482317E+01
   0.358000E+04   0.184977E-04   0.275015E-04   0.396702E+00   0.482317E+01
   0.359000E+04   0.185467E-04   0.275104E-04   0.396702E+00   0.482317E+01
   0.360000E+04   0.185959E-04   0.275193E-04   0.396702E+00   0.482317E+01
   0.361000E+04   0.186451E-04   0.275284E-04   0.396702E+00   0.482317E+01
   0.362000E+04   0.186944E-04   0.275376E-04   0.396702E+00   0.482317E+01
   0.363000E+04   0.187437E-04   0.275469E-04   0.396702E+00   0.482317E+01
   0.364000E+04   0.187931E-04   0.275563E-04   0.396702E+00   0.482317E+01
   0.365000E+04   0.188426E-04   0.275658E-04   0.396702E+00   0.482317E+01
   0.366000E+04   0.188921E-04   0.275754E-04   0.396702E+00   0.482317E+01
   0.367000E+04   0.189417E-04   0.275852E-04   0.396702E+00   0.482317E+01
   0.368000E+04   0.189913E-04   0.275950E-04   0.396702E+00   0.482317E+01
   0.369000E+04   0.190410E-04   0.276050E-04   0.396702E+00   0.482317E+01
   0.370000E+04   0.190907E-04   0.276150E-04   0.396702E+00   0.482317E+01
   0.371000E+04   0.191405E-04   0.276251E-04   0.396702E+00   0.482317E+01
   0.372000E+04   0.191904E-04   0.276354E-04   0.396702E+00   0.482317E+01
   0.373000E+04   0.192403E-04   0.276457E-04   0.396702E+00   0.482317E+01
   0.374000E+04   0.192904E-04   0.276561E-04   0.396702E+00   0.482317E+01
   0.375000E+04   0.193405E-04   0.276666E-04   0.396702E+00   0.482317E+01
   0.376000E+04   0.193908E-04   0.276773E-04   0.396702E+00   0.482317E+01
   0.377000E+04   0.194413E-04   0.276880E-04   0.396702E+00   0.482317E+01
   0.378000E+04   0.194920E-04   0.276988E-04   0.396702E+00   0.482317E+01
   0.379000E+04   0.195428E-04   0.277097E-04   0.396702E+00   0.482317E+01
   0.380000E+04   0.195939E-04   0.277206E-04   0.396702E+00   0.482317E+01
   0.381000E+04   0.196453E-04   0.277317E-04   0.396702E+00   0.482317E+01
   0.382000E+04   0.196969E-04   0.277429E-04   0.396702E+00   0.482317E+01
   0.383000E+04   0.197489E-04   0.277542E-04   0.396702E+00   0.482317E+01
   0.384000E+04   0.198012E-04   0.277655E-04   0.396702E+00   0.482317E+01
   0.385000E+04   0.198539E-04   0.277770E-04   0.396701E+00   0.482317E+01
   0.386000E+04   0.199070E-04   0.277886E-04   0.396701E+00   0.482317E+01
   0.387000E+04   0.199606E-04   0.278002E-04   0.396701E+00   0.482317E+01
   0.388000E+04   0.200147E-04   0.278120E-04   0.396701E+00   0.482317E+01
   0.389000E+04   0.200692E-04   0.278239E-04   0.396701E+00   0.482317E+01
   0.390000E+04   0.201244E-04   0.278358E-04   0.396701E+00   0.482317E+01
   0.391000E+04   0.201801E-04   0.278479E-04   0.396701E+00   0.482317E+01
   0.392000E+04   0.202365E-04   0.278601E-04   0.396701E+00   0.482317E+01
   0.393000E+04   0.202935E-04   0.278725E-04   0.396701E+00   0.482317E+01