title="breakthrough data set at     5 wells"
variables="time(days)","cavg","cpk","upk","zswi"
zone i=     1295
   0.100000E+02   0.599058E-12   0.985779E-12   0.470376E+00   0.485685E+01
   0.200000E+02   0.205168E-11   0.339944E-11   0.384681E+00   0.483800E+01
   0.300000E+02   0.530274E-11   0.876185E-11   0.384319E+00   0.483800E+01
   0.400000E+02   0.118308E-10   0.194765E-10   0.384357E+00   0.483800E+01
   0.500000E+02   0.239984E-10   0.396790E-10   0.384418E+00   0.483800E+01
   0.600000E+02   0.454322E-10   0.762641E-10   0.384493E+00   0.483800E+01
   0.700000E+02   0.814909E-10   0.138688E-09   0.384569E+00   0.483800E+01
   0.800000E+02   0.139809E-09   0.240921E-09   0.384657E+00   0.483800E+01
   0.900000E+02   0.230914E-09   0.402408E-09   0.384746E+00   0.483800E+01
   0.100000E+03   0.368880E-09   0.649351E-09   0.384838E+00   0.483800E+01
   0.110000E+03   0.572014E-09   0.101605E-08   0.384930E+00   0.483800E+01
   0.120000E+03   0.863796E-09   0.154673E-08   0.384930E+00   0.483800E+01
   0.130000E+03   0.127293E-08   0.229568E-08   0.385022E+00   0.483800E+01
   0.140000E+03   0.183434E-08   0.332918E-08   0.385114E+00   0.483800E+01
   0.150000E+03   0.258876E-08   0.472475E-08   0.385298E+00   0.483800E+01
   0.160000E+03   0.358478E-08   0.657521E-08   0.385387E+00   0.483800E+01
   0.170000E+03   0.487897E-08   0.898877E-08   0.385386E+00   0.483800E+01
   0.180000E+03   0.653330E-08   0.120841E-07   0.385475E+00   0.483800E+01
   0.190000E+03   0.861752E-08   0.159948E-07   0.385563E+00   0.483800E+01
   0.200000E+03   0.112082E-07   0.208680E-07   0.385649E+00   0.483800E+01
   0.210000E+03   0.143885E-07   0.268630E-07   0.385734E+00   0.483800E+01
   0.220000E+03   0.182472E-07   0.341505E-07   0.385817E+00   0.483800E+01
   0.230000E+03   0.228786E-07   0.429111E-07   0.385898E+00   0.483800E+01
   0.240000E+03   0.283811E-07   0.533340E-07   0.385977E+00   0.483800E+01
   0.250000E+03   0.348570E-07   0.656150E-07   0.386055E+00   0.483800E+01
   0.260000E+03   0.424110E-07   0.799547E-07   0.386131E+00   0.483800E+01
   0.270000E+03   0.511496E-07   0.965568E-07   0.386206E+00   0.483800E+01
   0.280000E+03   0.611797E-07   0.115626E-06   0.386279E+00   0.483800E+01
   0.290000E+03   0.726082E-07   0.137366E-06   0.386350E+00   0.483800E+01
   0.300000E+03   0.855403E-07   0.161977E-06   0.386420E+00   0.483800E+01
   0.310000E+03   0.100079E-06   0.189656E-06   0.386488E+00   0.483800E+01
   0.320000E+03   0.116324E-06   0.220593E-06   0.386555E+00   0.483800E+01
   0.330000E+03   0.134370E-06   0.254968E-06   0.386620E+00   0.483800E+01
   0.340000E+03   0.154308E-06   0.292955E-06   0.386684E+00   0.483800E+01
   0.350000E+03   0.176222E-06   0.334713E-06   0.386746E+00   0.483800E+01
   0.360000E+03   0.200190E-06   0.380391E-06   0.386807E+00   0.483800E+01
   0.370000E+03   0.226282E-06   0.430123E-06   0.386867E+00   0.483800E+01
   0.380000E+03   0.254561E-06   0.484029E-06   0.386925E+00   0.483800E+01
   0.390000E+03   0.285081E-06   0.542213E-06   0.386982E+00   0.483800E+01
   0.400000E+03   0.317886E-06   0.604761E-06   0.387038E+00   0.483800E+01
   0.410000E+03   0.353012E-06   0.671743E-06   0.387093E+00   0.483800E+01
   0.420000E+03   0.390487E-06   0.743212E-06   0.387147E+00   0.483800E+01
   0.430000E+03   0.430325E-06   0.819203E-06   0.387200E+00   0.483800E+01
   0.440000E+03   0.472534E-06   0.899732E-06   0.387252E+00   0.483800E+01
   0.450000E+03   0.517111E-06   0.984800E-06   0.387303E+00   0.483800E+01
   0.460000E+03   0.564043E-06   0.107439E-05   0.387353E+00   0.483800E+01
   0.470000E+03   0.613310E-06   0.116847E-05   0.387402E+00   0.483800E+01
   0.480000E+03   0.664879E-06   0.126699E-05   0.387451E+00   0.483800E+01
   0.490000E+03   0.718712E-06   0.136990E-05   0.387498E+00   0.483800E+01
   0.500000E+03   0.774762E-06   0.147711E-05   0.387545E+00   0.483800E+01
   0.510000E+03   0.832972E-06   0.158854E-05   0.387590E+00   0.483800E+01
   0.520000E+03   0.893279E-06   0.170409E-05   0.387635E+00   0.483800E+01
   0.530000E+03   0.955612E-06   0.182365E-05   0.387680E+00   0.483800E+01
   0.540000E+03   0.101990E-05   0.194710E-05   0.387723E+00   0.483800E+01
   0.550000E+03   0.108604E-05   0.207432E-05   0.387766E+00   0.483800E+01
   0.560000E+03   0.115397E-05   0.220517E-05   0.387808E+00   0.483800E+01
   0.570000E+03   0.122357E-05   0.233950E-05   0.387849E+00   0.483800E+01
   0.580000E+03   0.129475E-05   0.247716E-05   0.387890E+00   0.483800E+01
   0.590000E+03   0.136740E-05   0.261799E-05   0.387930E+00   0.483800E+01
   0.600000E+03   0.144141E-05   0.276182E-05   0.387969E+00   0.483800E+01
   0.610000E+03   0.151667E-05   0.290848E-05   0.388007E+00   0.483800E+01
   0.620000E+03   0.159304E-05   0.305779E-05   0.388045E+00   0.483800E+01
   0.630000E+03   0.167041E-05   0.320956E-05   0.388083E+00   0.483800E+01
   0.640000E+03   0.174866E-05   0.336360E-05   0.388120E+00   0.483800E+01
   0.650000E+03   0.182764E-05   0.351974E-05   0.388156E+00   0.483800E+01
   0.660000E+03   0.190724E-05   0.367776E-05   0.388191E+00   0.483800E+01
   0.670000E+03   0.198731E-05   0.383749E-05   0.388226E+00   0.483800E+01
   0.680000E+03   0.206773E-05   0.399873E-05   0.388261E+00   0.483800E+01
   0.690000E+03   0.214836E-05   0.416130E-05   0.388295E+00   0.483800E+01
   0.700000E+03   0.222906E-05   0.432500E-05   0.388328E+00   0.483800E+01
   0.710000E+03   0.230971E-05   0.448967E-05   0.388361E+00   0.483800E+01
   0.720000E+03   0.239018E-05   0.465513E-05   0.388394E+00   0.483800E+01
   0.730000E+03   0.247034E-05   0.482121E-05   0.388426E+00   0.483800E+01
   0.740000E+03   0.255006E-05   0.498777E-05   0.388458E+00   0.483800E+01
   0.750000E+03   0.262921E-05   0.515464E-05   0.388489E+00   0.483800E+01
   0.760000E+03   0.270769E-05   0.532169E-05   0.388520E+00   0.483800E+01
   0.770000E+03   0.278536E-05   0.548878E-05   0.388550E+00   0.483800E+01
   0.780000E+03   0.286210E-05   0.565577E-05   0.388580E+00   0.483800E+01
   0.790000E+03   0.293782E-05   0.582256E-05   0.388610E+00   0.483800E+01
   0.800000E+03   0.301239E-05   0.598901E-05   0.388639E+00   0.483800E+01
   0.810000E+03   0.308570E-05   0.615501E-05   0.388668E+00   0.483800E+01
   0.820000E+03   0.315764E-05   0.632044E-05   0.388696E+00   0.483800E+01
   0.830000E+03   0.322810E-05   0.648520E-05   0.388724E+00   0.483800E+01
   0.840000E+03   0.329699E-05   0.664918E-05   0.388752E+00   0.483800E+01
   0.850000E+03   0.336420E-05   0.681226E-05   0.388779E+00   0.483800E+01
   0.860000E+03   0.342962E-05   0.697434E-05   0.388806E+00   0.483800E+01
   0.870000E+03   0.349316E-05   0.713531E-05   0.388833E+00   0.483800E+01
   0.880000E+03   0.355472E-05   0.729507E-05   0.388859E+00   0.483800E+01
   0.890000E+03   0.361421E-05   0.745351E-05   0.388885E+00   0.483800E+01
   0.900000E+03   0.367154E-05   0.761053E-05   0.388910E+00   0.483800E+01
   0.910000E+03   0.372663E-05   0.776605E-05   0.388935E+00   0.483800E+01
   0.920000E+03   0.377939E-05   0.791995E-05   0.388960E+00   0.483800E+01
   0.930000E+03   0.382974E-05   0.807215E-05   0.388985E+00   0.483800E+01
   0.940000E+03   0.387763E-05   0.822257E-05   0.389009E+00   0.483800E+01
   0.950000E+03   0.392296E-05   0.837112E-05   0.389033E+00   0.483800E+01
   0.960000E+03   0.396570E-05   0.851773E-05   0.389056E+00   0.483800E+01
   0.970000E+03   0.400577E-05   0.866233E-05   0.389079E+00   0.483800E+01
   0.980000E+03   0.404312E-05   0.880486E-05   0.389102E+00   0.483800E+01
   0.990000E+03   0.407772E-05   0.894527E-05   0.389125E+00   0.483800E+01
   0.100000E+04   0.410951E-05   0.908350E-05   0.389147E+00   0.483800E+01
   0.101000E+04   0.413846E-05   0.921953E-05   0.389170E+00   0.483800E+01
   0.102000E+04   0.416455E-05   0.935332E-05   0.389192E+00   0.483800E+01
   0.103000E+04   0.418775E-05   0.948486E-05   0.389213E+00   0.483800E+01
   0.104000E+04   0.420804E-05   0.961413E-05   0.389235E+00   0.483800E+01
   0.105000E+04   0.422542E-05   0.974113E-05   0.389256E+00   0.483800E+01
   0.106000E+04   0.423987E-05   0.986588E-05   0.389277E+00   0.483800E+01
   0.107000E+04   0.425139E-05   0.998838E-05   0.389297E+00   0.483800E+01
   0.108000E+04   0.425999E-05   0.101087E-04   0.389318E+00   0.483800E+01
   0.109000E+04   0.426568E-05   0.102267E-04   0.389338E+00   0.483800E+01
   0.110000E+04   0.426848E-05   0.103427E-04   0.389358E+00   0.483800E+01
   0.111000E+04   0.426840E-05   0.104565E-04   0.389378E+00   0.483800E+01
   0.112000E+04   0.426546E-05   0.105683E-04   0.389397E+00   0.483800E+01
   0.113000E+04   0.425970E-05   0.106781E-04   0.389416E+00   0.483800E+01
   0.114000E+04   0.425115E-05   0.107860E-04   0.389435E+00   0.483800E+01
   0.115000E+04   0.423984E-05   0.108920E-04   0.389454E+00   0.483800E+01
   0.116000E+04   0.422582E-05   0.109963E-04   0.389473E+00   0.483800E+01
   0.117000E+04   0.420913E-05   0.110988E-04   0.389491E+00   0.483800E+01
   0.118000E+04   0.418983E-05   0.111997E-04   0.389509E+00   0.483800E+01
   0.119000E+04   0.416796E-05   0.112991E-04   0.389527E+00   0.483800E+01
   0.120000E+04   0.414358E-05   0.113970E-04   0.389545E+00   0.483800E+01
   0.121000E+04   0.411676E-05   0.114936E-04   0.389562E+00   0.483800E+01
   0.122000E+04   0.408756E-05   0.115889E-04   0.389580E+00   0.483800E+01
   0.123000E+04   0.405604E-05   0.116831E-04   0.389597E+00   0.483800E+01
   0.124000E+04   0.402228E-05   0.117763E-04   0.389614E+00   0.483800E+01
   0.125000E+04   0.398635E-05   0.118685E-04   0.389630E+00   0.483800E+01
   0.126000E+04   0.394831E-05   0.119599E-04   0.389647E+00   0.483800E+01
   0.127000E+04   0.390825E-05   0.120506E-04   0.389663E+00   0.483800E+01
   0.128000E+04   0.386625E-05   0.121407E-04   0.389679E+00   0.483800E+01
   0.129000E+04   0.382236E-05   0.122302E-04   0.389695E+00   0.483800E+01
   0.130000E+04   0.377668E-05   0.123193E-04   0.389711E+00   0.483800E+01
   0.131000E+04   0.372928E-05   0.124081E-04   0.389726E+00   0.483800E+01
   0.132000E+04   0.368023E-05   0.124967E-04   0.389742E+00   0.483800E+01
   0.133000E+04   0.362960E-05   0.125851E-04   0.389757E+00   0.483800E+01
   0.134000E+04   0.357747E-05   0.126734E-04   0.389772E+00   0.483800E+01
   0.135000E+04   0.352390E-05   0.127617E-04   0.389787E+00   0.483800E+01
   0.136000E+04   0.346897E-05   0.128501E-04   0.389801E+00   0.483800E+01
   0.137000E+04   0.341274E-05   0.129386E-04   0.389816E+00   0.483800E+01
   0.138000E+04   0.335527E-05   0.130272E-04   0.389831E+00   0.483800E+01
   0.139000E+04   0.329662E-05   0.131161E-04   0.389845E+00   0.483800E+01
   0.140000E+04   0.323685E-05   0.132052E-04   0.389859E+00   0.483800E+01
   0.141000E+04   0.317601E-05   0.132947E-04   0.389873E+00   0.483800E+01
   0.142000E+04   0.311414E-05   0.133843E-04   0.389887E+00   0.483800E+01
   0.143000E+04   0.305130E-05   0.134743E-04   0.389901E+00   0.483800E+01
   0.144000E+04   0.298752E-05   0.135646E-04   0.389914E+00   0.483800E+01
   0.145000E+04   0.292285E-05   0.136552E-04   0.389928E+00   0.483800E+01
   0.146000E+04   0.285731E-05   0.137460E-04   0.389941E+00   0.483800E+01
   0.147000E+04   0.279094E-05   0.138370E-04   0.389954E+00   0.483800E+01
   0.148000E+04   0.272377E-05   0.139283E-04   0.389967E+00   0.483800E+01
   0.149000E+04   0.265582E-05   0.140197E-04   0.389980E+00   0.483800E+01
   0.150000E+04   0.258713E-05   0.141112E-04   0.389992E+00   0.483800E+01
   0.151000E+04   0.251770E-05   0.142028E-04   0.390005E+00   0.483800E+01
   0.152000E+04   0.244758E-05   0.142944E-04   0.390017E+00   0.483800E+01
   0.153000E+04   0.237677E-05   0.143861E-04   0.390029E+00   0.483800E+01
   0.154000E+04   0.230530E-05   0.144777E-04   0.390041E+00   0.483800E+01
   0.155000E+04   0.223320E-05   0.145693E-04   0.390053E+00   0.483800E+01
   0.156000E+04   0.216049E-05   0.146608E-04   0.390065E+00   0.483800E+01
   0.157000E+04   0.208719E-05   0.147521E-04   0.390076E+00   0.483800E+01
   0.158000E+04   0.201332E-05   0.148433E-04   0.390088E+00   0.483800E+01
   0.159000E+04   0.193892E-05   0.149343E-04   0.390099E+00   0.483800E+01
   0.160000E+04   0.186400E-05   0.150251E-04   0.390110E+00   0.483800E+01
   0.161000E+04   0.178860E-05   0.151157E-04   0.390121E+00   0.483800E+01
   0.162000E+04   0.171274E-05   0.152062E-04   0.390132E+00   0.483800E+01
   0.163000E+04   0.163646E-05   0.152964E-04   0.390143E+00   0.483800E+01
   0.164000E+04   0.155977E-05   0.153863E-04   0.390153E+00   0.483800E+01
   0.165000E+04   0.148273E-05   0.154761E-04   0.390164E+00   0.483800E+01
   0.166000E+04   0.140535E-05   0.155656E-04   0.390174E+00   0.483800E+01
   0.167000E+04   0.132766E-05   0.156549E-04   0.390184E+00   0.483800E+01
   0.168000E+04   0.124970E-05   0.157440E-04   0.390194E+00   0.483800E+01
   0.169000E+04   0.117150E-05   0.158329E-04   0.390204E+00   0.483800E+01
   0.170000E+04   0.109310E-05   0.159216E-04   0.390214E+00   0.483800E+01
   0.171000E+04   0.101451E-05   0.160101E-04   0.390224E+00   0.483800E+01
   0.172000E+04   0.935783E-06   0.160983E-04   0.390234E+00   0.483800E+01
   0.173000E+04   0.856937E-06   0.161864E-04   0.390244E+00   0.483800E+01
   0.174000E+04   0.778006E-06   0.162743E-04   0.390253E+00   0.483800E+01
   0.175000E+04   0.699018E-06   0.163619E-04   0.390263E+00   0.483800E+01
   0.176000E+04   0.620003E-06   0.164494E-04   0.390272E+00   0.483800E+01
   0.177000E+04   0.540988E-06   0.165367E-04   0.390281E+00   0.483800E+01
   0.178000E+04   0.461999E-06   0.166238E-04   0.390291E+00   0.483800E+01
   0.179000E+04   0.383062E-06   0.167107E-04   0.390300E+00   0.483800E+01
   0.180000E+04   0.304203E-06   0.167973E-04   0.390309E+00   0.483800E+01
   0.181000E+04   0.225443E-06   0.168837E-04   0.390318E+00   0.483800E+01
   0.182000E+04   0.146805E-06   0.169699E-04   0.390327E+00   0.483800E+01
   0.183000E+04   0.683108E-07   0.170558E-04   0.390336E+00   0.483800E+01
   0.184000E+04  -0.100215E-07   0.171414E-04   0.390344E+00   0.483800E+01
   0.185000E+04  -0.881734E-07   0.172267E-04   0.390353E+00   0.483800E+01
   0.186000E+04  -0.166128E-06   0.173116E-04   0.390362E+00   0.483800E+01
   0.187000E+04  -0.243870E-06   0.173963E-04   0.390370E+00   0.483800E+01
   0.188000E+04  -0.321385E-06   0.174805E-04   0.390379E+00   0.483800E+01
   0.189000E+04  -0.398661E-06   0.175643E-04   0.390387E+00   0.483800E+01
   0.190000E+04  -0.475687E-06   0.176477E-04   0.390396E+00   0.483800E+01
   0.191000E+04  -0.552452E-06   0.177305E-04   0.390404E+00   0.483800E+01
   0.192000E+04  -0.628947E-06   0.178129E-04   0.390412E+00   0.483800E+01
   0.193000E+04  -0.705166E-06   0.178946E-04   0.390420E+00   0.483800E+01
   0.194000E+04  -0.781103E-06   0.179758E-04   0.390428E+00   0.483800E+01
   0.195000E+04  -0.856751E-06   0.180563E-04   0.390436E+00   0.483800E+01
   0.196000E+04  -0.932108E-06   0.181361E-04   0.390444E+00   0.483800E+01
   0.197000E+04  -0.100717E-05   0.182151E-04   0.390452E+00   0.483800E+01
   0.198000E+04  -0.108194E-05   0.182934E-04   0.390460E+00   0.483800E+01
   0.199000E+04  -0.115641E-05   0.183708E-04   0.390467E+00   0.483800E+01
   0.200000E+04  -0.123058E-05   0.184474E-04   0.390475E+00   0.483800E+01
   0.201000E+04  -0.130446E-05   0.185230E-04   0.390482E+00   0.483800E+01
   0.202000E+04  -0.137805E-05   0.185976E-04   0.390490E+00   0.483800E+01
   0.203000E+04  -0.145134E-05   0.186712E-04   0.390497E+00   0.483800E+01
   0.204000E+04  -0.152434E-05   0.187437E-04   0.390505E+00   0.483800E+01
   0.205000E+04  -0.159706E-05   0.188151E-04   0.390512E+00   0.483800E+01
   0.206000E+04  -0.166950E-05   0.188853E-04   0.390519E+00   0.483800E+01
   0.207000E+04  -0.174166E-05   0.189543E-04   0.390526E+00   0.483800E+01
   0.208000E+04  -0.181355E-05   0.190220E-04   0.390533E+00   0.483800E+01
   0.209000E+04  -0.188516E-05   0.190884E-04   0.390540E+00   0.483800E+01
   0.210000E+04  -0.195651E-05   0.191536E-04   0.390547E+00   0.483800E+01
   0.211000E+04  -0.202759E-05   0.192173E-04   0.390553E+00   0.483800E+01
   0.212000E+04  -0.209841E-05   0.192797E-04   0.390560E+00   0.483800E+01
   0.213000E+04  -0.216897E-05   0.193407E-04   0.390567E+00   0.483800E+01
   0.214000E+04  -0.223926E-05   0.194003E-04   0.390573E+00   0.483800E+01
   0.215000E+04  -0.230930E-05   0.194584E-04   0.390580E+00   0.483800E+01
   0.216000E+04  -0.237907E-05   0.195152E-04   0.390586E+00   0.483800E+01
   0.217000E+04  -0.244857E-05   0.195705E-04   0.390593E+00   0.483800E+01
   0.218000E+04  -0.251781E-05   0.196243E-04   0.390599E+00   0.483800E+01
   0.219000E+04  -0.258676E-05   0.196768E-04   0.390605E+00   0.483800E+01
   0.220000E+04  -0.265543E-05   0.197279E-04   0.390611E+00   0.483800E+01
   0.221000E+04  -0.272380E-05   0.197777E-04   0.390617E+00   0.483800E+01
   0.222000E+04  -0.279186E-05   0.198262E-04   0.390623E+00   0.483800E+01
   0.223000E+04  -0.285960E-05   0.198734E-04   0.390629E+00   0.483800E+01
   0.224000E+04  -0.292701E-05   0.199194E-04   0.390635E+00   0.483800E+01
   0.225000E+04  -0.299405E-05   0.199643E-04   0.390641E+00   0.483800E+01
   0.226000E+04  -0.306072E-05   0.200081E-04   0.390647E+00   0.483800E+01
   0.227000E+04  -0.312699E-05   0.200510E-04   0.390652E+00   0.483800E+01
   0.228000E+04  -0.319284E-05   0.200929E-04   0.390658E+00   0.483800E+01
   0.229000E+04  -0.325824E-05   0.201341E-04   0.390663E+00   0.483800E+01
   0.230000E+04  -0.332316E-05   0.201745E-04   0.390669E+00   0.483800E+01
   0.231000E+04  -0.338758E-05   0.202143E-04   0.390674E+00   0.483800E+01
   0.232000E+04  -0.345146E-05   0.202537E-04   0.390680E+00   0.483800E+01
   0.233000E+04  -0.351478E-05   0.202926E-04   0.390685E+00   0.483800E+01
   0.234000E+04  -0.357748E-05   0.203313E-04   0.390690E+00   0.483800E+01
   0.235000E+04  -0.363955E-05   0.203699E-04   0.390696E+00   0.483800E+01
   0.236000E+04  -0.370095E-05   0.204084E-04   0.390701E+00   0.483800E+01
   0.237000E+04  -0.376163E-05   0.204470E-04   0.390706E+00   0.483800E+01
   0.238000E+04  -0.382156E-05   0.204859E-04   0.390711E+00   0.483800E+01
   0.239000E+04  -0.388070E-05   0.205251E-04   0.390716E+00   0.483800E+01
   0.240000E+04  -0.393901E-05   0.205648E-04   0.390721E+00   0.483800E+01
   0.241000E+04  -0.399645E-05   0.206051E-04   0.390726E+00   0.483800E+01
   0.242000E+04  -0.405299E-05   0.206462E-04   0.390731E+00   0.483800E+01
   0.243000E+04  -0.410856E-05   0.206881E-04   0.390736E+00   0.483800E+01
   0.244000E+04  -0.416314E-05   0.207311E-04   0.390741E+00   0.483800E+01
   0.245000E+04  -0.421669E-05   0.207752E-04   0.390745E+00   0.483800E+01
   0.246000E+04  -0.426915E-05   0.208206E-04   0.390750E+00   0.483800E+01
   0.247000E+04  -0.432050E-05   0.208674E-04   0.390755E+00   0.483800E+01
   0.248000E+04  -0.437068E-05   0.209158E-04   0.390760E+00   0.483800E+01
   0.249000E+04  -0.441965E-05   0.209658E-04   0.390765E+00   0.483800E+01
   0.250000E+04  -0.446738E-05   0.210177E-04   0.390769E+00   0.483800E+01
   0.251000E+04  -0.451381E-05   0.210714E-04   0.390773E+00   0.483800E+01
   0.252000E+04  -0.455892E-05   0.211272E-04   0.390777E+00   0.483800E+01
   0.253000E+04  -0.460264E-05   0.211853E-04   0.390782E+00   0.483800E+01
   0.254000E+04  -0.464494E-05   0.212458E-04   0.390787E+00   0.483800E+01
   0.255000E+04  -0.468578E-05   0.213087E-04   0.390791E+00   0.483800E+01
   0.256000E+04  -0.472513E-05   0.213743E-04   0.390794E+00   0.483800E+01
   0.257000E+04  -0.476296E-05   0.214426E-04   0.390798E+00   0.483800E+01
   0.258000E+04  -0.479921E-05   0.215138E-04   0.390803E+00   0.483800E+01
   0.259000E+04  -0.483383E-05   0.215882E-04   0.390808E+00   0.483800E+01
   0.260000E+04  -0.486681E-05   0.216658E-04   0.390812E+00   0.483800E+01
   0.261000E+04  -0.489813E-05   0.217466E-04   0.390814E+00   0.483800E+01
   0.262000E+04  -0.492777E-05   0.218308E-04   0.390817E+00   0.483800E+01
   0.263000E+04  -0.495567E-05   0.219186E-04   0.390822E+00   0.483800E+01
   0.264000E+04  -0.498178E-05   0.220103E-04   0.390828E+00   0.483800E+01
   0.265000E+04  -0.500609E-05   0.221058E-04   0.390832E+00   0.483800E+01
   0.266000E+04  -0.502863E-05   0.222052E-04   0.390832E+00   0.483800E+01
   0.267000E+04  -0.504935E-05   0.223084E-04   0.390834E+00   0.483800E+01
   0.268000E+04  -0.506822E-05   0.224158E-04   0.390839E+00   0.483800E+01
   0.269000E+04  -0.508516E-05   0.225278E-04   0.390847E+00   0.483800E+01
   0.270000E+04  -0.510019E-05   0.226441E-04   0.390851E+00   0.483800E+01
   0.271000E+04  -0.511333E-05   0.227646E-04   0.390851E+00   0.483800E+01
   0.272000E+04  -0.512459E-05   0.228894E-04   0.390851E+00   0.483800E+01
   0.273000E+04  -0.513389E-05   0.230188E-04   0.390856E+00   0.483800E+01
   0.274000E+04  -0.514118E-05   0.231530E-04   0.390865E+00   0.483800E+01
   0.275000E+04  -0.514647E-05   0.232919E-04   0.390870E+00   0.483800E+01
   0.276000E+04  -0.514981E-05   0.234354E-04   0.390870E+00   0.483800E+01
   0.277000E+04  -0.515120E-05   0.235832E-04   0.390869E+00   0.483800E+01
   0.278000E+04  -0.515062E-05   0.237358E-04   0.390874E+00   0.483800E+01
   0.279000E+04  -0.514799E-05   0.238932E-04   0.390882E+00   0.483800E+01
   0.280000E+04  -0.514332E-05   0.240555E-04   0.390888E+00   0.483800E+01
   0.281000E+04  -0.513667E-05   0.242224E-04   0.390889E+00   0.483800E+01
   0.282000E+04  -0.512809E-05   0.243936E-04   0.390888E+00   0.483800E+01
   0.283000E+04  -0.511755E-05   0.245692E-04   0.390890E+00   0.483800E+01
   0.284000E+04  -0.510499E-05   0.247496E-04   0.390897E+00   0.483800E+01
   0.285000E+04  -0.509043E-05   0.249347E-04   0.390904E+00   0.483800E+01
   0.286000E+04  -0.507391E-05   0.251241E-04   0.390906E+00   0.483800E+01
   0.287000E+04  -0.505551E-05   0.253177E-04   0.390905E+00   0.483800E+01
   0.288000E+04  -0.503522E-05   0.255153E-04   0.390906E+00   0.483800E+01
   0.289000E+04  -0.501302E-05   0.257172E-04   0.390912E+00   0.483800E+01
   0.290000E+04  -0.498888E-05   0.259234E-04   0.390918E+00   0.483800E+01
   0.291000E+04  -0.496287E-05   0.261337E-04   0.390922E+00   0.483800E+01
   0.292000E+04  -0.493507E-05   0.263477E-04   0.390921E+00   0.483800E+01
   0.293000E+04  -0.490550E-05   0.265653E-04   0.390921E+00   0.483800E+01
   0.294000E+04  -0.487415E-05   0.267865E-04   0.390925E+00   0.483800E+01
   0.295000E+04  -0.484101E-05   0.270116E-04   0.390931E+00   0.483800E+01
   0.296000E+04  -0.480610E-05   0.272403E-04   0.390936E+00   0.483800E+01
   0.297000E+04  -0.476952E-05   0.274722E-04   0.390936E+00   0.483800E+01
   0.298000E+04  -0.473133E-05   0.277072E-04   0.390935E+00   0.483800E+01
   0.299000E+04  -0.469153E-05   0.279451E-04   0.390937E+00   0.483800E+01
   0.300000E+04  -0.465010E-05   0.281863E-04   0.390943E+00   0.483800E+01
   0.301000E+04  -0.460705E-05   0.284306E-04   0.390948E+00   0.483800E+01
   0.302000E+04  -0.456247E-05   0.286777E-04   0.390950E+00   0.483800E+01
   0.303000E+04  -0.451645E-05   0.289271E-04   0.390948E+00   0.483800E+01
   0.304000E+04  -0.446901E-05   0.291790E-04   0.390949E+00   0.483800E+01
   0.305000E+04  -0.442011E-05   0.294334E-04   0.390954E+00   0.483800E+01
   0.306000E+04  -0.436977E-05   0.296904E-04   0.390960E+00   0.483800E+01
   0.307000E+04  -0.431806E-05   0.299497E-04   0.390962E+00   0.483800E+01
   0.308000E+04  -0.426508E-05   0.302108E-04   0.390961E+00   0.483800E+01
   0.309000E+04  -0.421086E-05   0.304737E-04   0.390960E+00   0.483800E+01
   0.310000E+04  -0.415538E-05   0.307386E-04   0.390964E+00   0.483800E+01
   0.311000E+04  -0.409864E-05   0.310054E-04   0.390970E+00   0.483800E+01
   0.312000E+04  -0.404068E-05   0.312741E-04   0.390973E+00   0.483800E+01
   0.313000E+04  -0.398161E-05   0.315442E-04   0.390973E+00   0.483800E+01
   0.314000E+04  -0.392149E-05   0.318156E-04   0.390972E+00   0.483800E+01
   0.315000E+04  -0.386032E-05   0.320882E-04   0.390973E+00   0.483800E+01
   0.316000E+04  -0.379806E-05   0.323623E-04   0.390979E+00   0.483800E+01
   0.317000E+04  -0.373474E-05   0.326378E-04   0.390984E+00   0.483800E+01
   0.318000E+04  -0.367046E-05   0.329144E-04   0.390984E+00   0.483800E+01
   0.319000E+04  -0.360529E-05   0.331917E-04   0.390983E+00   0.483800E+01
   0.320000E+04  -0.353926E-05   0.334698E-04   0.390983E+00   0.483800E+01
   0.321000E+04  -0.347233E-05   0.337488E-04   0.390988E+00   0.483800E+01
   0.322000E+04  -0.340449E-05   0.340289E-04   0.390993E+00   0.483800E+01
   0.323000E+04  -0.333582E-05   0.343096E-04   0.390995E+00   0.483800E+01
   0.324000E+04  -0.326643E-05   0.345908E-04   0.390993E+00   0.483800E+01
   0.325000E+04  -0.319634E-05   0.348722E-04   0.390993E+00   0.483800E+01
   0.326000E+04  -0.312551E-05   0.351542E-04   0.390996E+00   0.483800E+01
   0.327000E+04  -0.305393E-05   0.354367E-04   0.391002E+00   0.483800E+01
   0.328000E+04  -0.298165E-05   0.357198E-04   0.391005E+00   0.483800E+01
   0.329000E+04  -0.290876E-05   0.360029E-04   0.391004E+00   0.483800E+01
   0.330000E+04  -0.283534E-05   0.362860E-04   0.391002E+00   0.483800E+01
   0.331000E+04  -0.276134E-05   0.365691E-04   0.391004E+00   0.483800E+01
   0.332000E+04  -0.268673E-05   0.368525E-04   0.391009E+00   0.483800E+01
   0.333000E+04  -0.261153E-05   0.371361E-04   0.391014E+00   0.483800E+01
   0.334000E+04  -0.253583E-05   0.374197E-04   0.391014E+00   0.483800E+01
   0.335000E+04  -0.245972E-05   0.377028E-04   0.391012E+00   0.483800E+01
   0.336000E+04  -0.238319E-05   0.379857E-04   0.391012E+00   0.483800E+01
   0.337000E+04  -0.230619E-05   0.382685E-04   0.391017E+00   0.483800E+01
   0.338000E+04  -0.222870E-05   0.385514E-04   0.391022E+00   0.483800E+01
   0.339000E+04  -0.215081E-05   0.388340E-04   0.391023E+00   0.483800E+01
   0.340000E+04  -0.207260E-05   0.391160E-04   0.391021E+00   0.483800E+01
   0.341000E+04  -0.199411E-05   0.393974E-04   0.391020E+00   0.483800E+01
   0.342000E+04  -0.191527E-05   0.396785E-04   0.391024E+00   0.483800E+01
   0.343000E+04  -0.183605E-05   0.399594E-04   0.391029E+00   0.483800E+01
   0.344000E+04  -0.175651E-05   0.402400E-04   0.391032E+00   0.483800E+01
   0.345000E+04  -0.167673E-05   0.405198E-04   0.391031E+00   0.483800E+01
   0.346000E+04  -0.159678E-05   0.407988E-04   0.391029E+00   0.483800E+01
   0.347000E+04  -0.151660E-05   0.410772E-04   0.391030E+00   0.483800E+01
   0.348000E+04  -0.143614E-05   0.413552E-04   0.391036E+00   0.483800E+01
   0.349000E+04  -0.135542E-05   0.416328E-04   0.391040E+00   0.483800E+01
   0.350000E+04  -0.127454E-05   0.419097E-04   0.391040E+00   0.483800E+01
   0.351000E+04  -0.119357E-05   0.421855E-04   0.391037E+00   0.483800E+01
   0.352000E+04  -0.111248E-05   0.424604E-04   0.391037E+00   0.483800E+01
   0.353000E+04  -0.103121E-05   0.427348E-04   0.391042E+00   0.483800E+01
   0.354000E+04  -0.949748E-06   0.430087E-04   0.391047E+00   0.483800E+01
   0.355000E+04  -0.868169E-06   0.432817E-04   0.391048E+00   0.483800E+01
   0.356000E+04  -0.786568E-06   0.435537E-04   0.391046E+00   0.483800E+01
   0.357000E+04  -0.704950E-06   0.438246E-04   0.391045E+00   0.483800E+01
   0.358000E+04  -0.623242E-06   0.440947E-04   0.391048E+00   0.483800E+01
   0.359000E+04  -0.541403E-06   0.443643E-04   0.391053E+00   0.483800E+01
   0.360000E+04  -0.459490E-06   0.446330E-04   0.391056E+00   0.483800E+01
   0.361000E+04  -0.377602E-06   0.449006E-04   0.391054E+00   0.483800E+01
   0.362000E+04  -0.295777E-06   0.451670E-04   0.391052E+00   0.483800E+01
   0.363000E+04  -0.213953E-06   0.454324E-04   0.391054E+00   0.483800E+01
   0.364000E+04  -0.132062E-06   0.456972E-04   0.391059E+00   0.483800E+01
   0.365000E+04  -0.501320E-07   0.459611E-04   0.391063E+00   0.483800E+01
   0.366000E+04   0.317415E-07   0.462239E-04   0.391062E+00   0.483800E+01
   0.367000E+04   0.113493E-06   0.464854E-04   0.391060E+00   0.483800E+01
   0.368000E+04   0.195158E-06   0.467458E-04   0.391060E+00   0.483800E+01
   0.369000E+04   0.276822E-06   0.470053E-04   0.391065E+00   0.483800E+01
   0.370000E+04   0.358491E-06   0.472641E-04   0.391069E+00   0.483800E+01
   0.371000E+04   0.440085E-06   0.475218E-04   0.391070E+00   0.483800E+01
   0.372000E+04   0.521513E-06   0.477782E-04   0.391067E+00   0.483800E+01
   0.373000E+04   0.602784E-06   0.480332E-04   0.391066E+00   0.483800E+01
   0.374000E+04   0.683982E-06   0.482873E-04   0.391070E+00   0.483800E+01
   0.375000E+04   0.765153E-06   0.485406E-04   0.391075E+00   0.483800E+01
   0.376000E+04   0.846236E-06   0.487929E-04   0.391077E+00   0.483800E+01
   0.377000E+04   0.927129E-06   0.490439E-04   0.391075E+00   0.483800E+01
   0.378000E+04   0.100781E-05   0.492935E-04   0.391073E+00   0.483800E+01
   0.379000E+04   0.108834E-05   0.495420E-04   0.391075E+00   0.483800E+01
   0.380000E+04   0.116882E-05   0.497896E-04   0.391080E+00   0.483800E+01
   0.381000E+04   0.124919E-05   0.500363E-04   0.391083E+00   0.483800E+01
   0.382000E+04   0.132937E-05   0.502818E-04   0.391082E+00   0.483800E+01
   0.383000E+04   0.140929E-05   0.505258E-04   0.391080E+00   0.483800E+01
   0.384000E+04   0.148901E-05   0.507686E-04   0.391080E+00   0.483800E+01
   0.385000E+04   0.156861E-05   0.510105E-04   0.391085E+00   0.483800E+01
   0.386000E+04   0.164811E-05   0.512515E-04   0.391089E+00   0.483800E+01
   0.387000E+04   0.172741E-05   0.514913E-04   0.391089E+00   0.483800E+01
   0.388000E+04   0.180644E-05   0.517297E-04   0.391087E+00   0.483800E+01
   0.389000E+04   0.188520E-05   0.519668E-04   0.391086E+00   0.483800E+01
   0.390000E+04   0.196381E-05   0.522028E-04   0.391089E+00   0.483800E+01
   0.391000E+04   0.204229E-05   0.524380E-04   0.391094E+00   0.483800E+01
   0.392000E+04   0.212059E-05   0.526722E-04   0.391096E+00   0.483800E+01
   0.393000E+04   0.219860E-05   0.529050E-04   0.391094E+00   0.483800E+01