title="breakthrough data set at     5 wells"
variables="time(days)","cavg","cpk","upk","zswi"
zone i=     1295
   0.100000E+02   0.514028E-10   0.111808E-09   0.456022E+00   0.485359E+01
   0.200000E+02   0.118432E-09   0.260291E-09   0.377466E+00   0.483262E+01
   0.300000E+02   0.235712E-09   0.519740E-09   0.377099E+00   0.483262E+01
   0.400000E+02   0.424822E-09   0.937313E-09   0.377040E+00   0.483262E+01
   0.500000E+02   0.708204E-09   0.156117E-08   0.376989E+00   0.483262E+01
   0.600000E+02   0.110264E-08   0.242558E-08   0.377003E+00   0.483262E+01
   0.700000E+02   0.160807E-08   0.352446E-08   0.377033E+00   0.483262E+01
   0.800000E+02   0.219620E-08   0.479150E-08   0.377082E+00   0.483262E+01
   0.900000E+02   0.280095E-08   0.609474E-08   0.377148E+00   0.483262E+01
   0.100000E+03   0.329127E-08   0.718779E-08   0.377225E+00   0.483262E+01
   0.110000E+03   0.342850E-08   0.762922E-08   0.377312E+00   0.483262E+01
   0.120000E+03   0.282827E-08   0.674301E-08   0.377406E+00   0.483262E+01
   0.130000E+03   0.927104E-09   0.361760E-08   0.377505E+00   0.483262E+01
   0.140000E+03  -0.306402E-08   0.457713E-09   0.377500E+00   0.483262E+01
   0.150000E+03  -0.101473E-07  -0.181881E-10   0.377609E+00   0.483262E+01
   0.160000E+03  -0.216675E-07  -0.852263E-09   0.377719E+00   0.483262E+01
   0.170000E+03  -0.394399E-07  -0.215780E-08   0.377829E+00   0.483262E+01
   0.180000E+03  -0.658817E-07  -0.405145E-08   0.377941E+00   0.483262E+01
   0.190000E+03  -0.104098E-06  -0.664448E-08   0.378053E+00   0.483262E+01
   0.200000E+03  -0.157603E-06  -0.996223E-08   0.378272E+00   0.483262E+01
   0.210000E+03  -0.231088E-06  -0.140596E-07   0.378366E+00   0.483262E+01
   0.220000E+03  -0.329570E-06  -0.189394E-07   0.378480E+00   0.483262E+01
   0.230000E+03  -0.458293E-06  -0.245635E-07   0.378609E+00   0.483262E+01
   0.240000E+03  -0.622860E-06  -0.308656E-07   0.378712E+00   0.483262E+01
   0.250000E+03  -0.828779E-06  -0.377353E-07   0.378800E+00   0.483262E+01
   0.260000E+03  -0.108159E-05  -0.450451E-07   0.378902E+00   0.483262E+01
   0.270000E+03  -0.138645E-05  -0.526264E-07   0.379014E+00   0.483262E+01
   0.280000E+03  -0.174872E-05  -0.603155E-07   0.379110E+00   0.483262E+01
   0.290000E+03  -0.217346E-05  -0.679171E-07   0.379184E+00   0.483262E+01
   0.300000E+03  -0.266538E-05  -0.752323E-07   0.379267E+00   0.483262E+01
   0.310000E+03  -0.322864E-05  -0.820427E-07   0.379370E+00   0.483262E+01
   0.320000E+03  -0.386746E-05  -0.881595E-07   0.379465E+00   0.483262E+01
   0.330000E+03  -0.458615E-05  -0.933999E-07   0.379541E+00   0.483262E+01
   0.340000E+03  -0.538820E-05  -0.975566E-07   0.379604E+00   0.483262E+01
   0.350000E+03  -0.627659E-05  -0.100447E-06   0.379687E+00   0.483262E+01
   0.360000E+03  -0.725943E-05  -0.102241E-06   0.379705E+00   0.483262E+01
   0.370000E+03  -0.832835E-05  -0.102272E-06   0.379852E+00   0.483262E+01
   0.380000E+03  -0.949744E-05  -0.100944E-06   0.379846E+00   0.483262E+01
   0.390000E+03  -0.107624E-04  -0.979851E-07   0.379924E+00   0.483262E+01
   0.400000E+03  -0.121241E-04  -0.932985E-07   0.379994E+00   0.483262E+01
   0.410000E+03  -0.135743E-04  -0.863782E-07   0.380118E+00   0.483262E+01
   0.420000E+03  -0.151190E-04  -0.774015E-07   0.380195E+00   0.483262E+01
   0.430000E+03  -0.167691E-04  -0.668188E-07   0.380190E+00   0.483262E+01
   0.440000E+03  -0.185162E-04  -0.543875E-07   0.380257E+00   0.483262E+01
   0.450000E+03  -0.203593E-04  -0.401093E-07   0.380326E+00   0.483262E+01
   0.460000E+03  -0.222848E-04  -0.235131E-07   0.380449E+00   0.483262E+01
   0.470000E+03  -0.243008E-04  -0.492996E-08   0.380499E+00   0.483262E+01
   0.480000E+03  -0.264062E-04   0.154997E-07   0.380565E+00   0.483262E+01
   0.490000E+03  -0.285983E-04   0.376637E-07   0.380635E+00   0.483262E+01
   0.500000E+03  -0.308760E-04   0.613964E-07   0.380711E+00   0.483262E+01
   0.510000E+03  -0.332395E-04   0.865477E-07   0.380768E+00   0.483262E+01
   0.520000E+03  -0.356880E-04   0.113008E-06   0.380811E+00   0.483262E+01
   0.530000E+03  -0.382193E-04   0.140669E-06   0.380860E+00   0.483262E+01
   0.540000E+03  -0.408312E-04   0.169389E-06   0.380922E+00   0.483262E+01
   0.550000E+03  -0.435214E-04   0.199021E-06   0.380976E+00   0.483262E+01
   0.560000E+03  -0.462885E-04   0.229371E-06   0.381032E+00   0.483262E+01
   0.570000E+03  -0.491323E-04   0.260254E-06   0.381078E+00   0.483262E+01
   0.580000E+03  -0.520516E-04   0.291522E-06   0.381117E+00   0.483262E+01
   0.590000E+03  -0.550431E-04   0.323014E-06   0.381164E+00   0.483262E+01
   0.600000E+03  -0.581041E-04   0.354539E-06   0.381220E+00   0.483262E+01
   0.610000E+03  -0.612323E-04   0.385870E-06   0.381268E+00   0.483262E+01
   0.620000E+03  -0.644254E-04   0.416758E-06   0.381321E+00   0.483262E+01
   0.630000E+03  -0.676833E-04   0.446965E-06   0.381360E+00   0.483262E+01
   0.640000E+03  -0.710044E-04   0.476295E-06   0.381393E+00   0.483262E+01
   0.650000E+03  -0.743856E-04   0.504536E-06   0.381436E+00   0.483262E+01
   0.660000E+03  -0.778244E-04   0.531437E-06   0.381488E+00   0.483262E+01
   0.670000E+03  -0.813182E-04   0.556742E-06   0.381534E+00   0.483262E+01
   0.680000E+03  -0.848647E-04   0.580194E-06   0.381582E+00   0.483262E+01
   0.690000E+03  -0.884644E-04   0.601558E-06   0.381614E+00   0.483262E+01
   0.700000E+03  -0.921159E-04   0.620649E-06   0.381644E+00   0.483262E+01
   0.710000E+03  -0.958162E-04   0.637308E-06   0.381679E+00   0.483262E+01
   0.720000E+03  -0.995631E-04   0.651325E-06   0.381725E+00   0.483262E+01
   0.730000E+03  -0.103354E-03   0.662537E-06   0.381767E+00   0.483262E+01
   0.740000E+03  -0.107186E-03   0.670765E-06   0.381807E+00   0.483262E+01
   0.750000E+03  -0.111059E-03   0.675827E-06   0.381836E+00   0.483262E+01
   0.760000E+03  -0.114973E-03   0.677599E-06   0.381863E+00   0.483262E+01
   0.770000E+03  -0.118925E-03   0.676034E-06   0.381892E+00   0.483262E+01
   0.780000E+03  -0.122912E-03   0.670993E-06   0.381933E+00   0.483262E+01
   0.790000E+03  -0.126931E-03   0.662403E-06   0.381972E+00   0.483262E+01
   0.800000E+03  -0.130979E-03   0.650205E-06   0.382008E+00   0.483262E+01
   0.810000E+03  -0.135057E-03   0.634295E-06   0.382033E+00   0.483262E+01
   0.820000E+03  -0.139163E-03   0.614644E-06   0.382055E+00   0.483262E+01
   0.830000E+03  -0.143293E-03   0.591288E-06   0.382082E+00   0.483262E+01
   0.840000E+03  -0.147447E-03   0.564162E-06   0.382117E+00   0.483262E+01
   0.850000E+03  -0.151621E-03   0.533260E-06   0.382155E+00   0.483262E+01
   0.860000E+03  -0.155812E-03   0.498622E-06   0.382184E+00   0.483262E+01
   0.870000E+03  -0.160020E-03   0.460233E-06   0.382209E+00   0.483262E+01
   0.880000E+03  -0.164243E-03   0.418100E-06   0.382224E+00   0.483262E+01
   0.890000E+03  -0.168480E-03   0.372315E-06   0.382247E+00   0.483262E+01
   0.900000E+03  -0.172727E-03   0.322943E-06   0.382276E+00   0.483262E+01
   0.910000E+03  -0.176983E-03   0.269990E-06   0.382312E+00   0.483262E+01
   0.920000E+03  -0.181245E-03   0.213581E-06   0.382339E+00   0.483262E+01
   0.930000E+03  -0.185509E-03   0.153783E-06   0.382363E+00   0.483262E+01
   0.940000E+03  -0.189776E-03   0.906210E-07   0.382373E+00   0.483262E+01
   0.950000E+03  -0.194045E-03   0.242095E-07   0.382392E+00   0.483262E+01
   0.960000E+03  -0.198310E-03  -0.452901E-07   0.382415E+00   0.483262E+01
   0.970000E+03  -0.202571E-03  -0.117870E-06   0.382448E+00   0.483262E+01
   0.980000E+03  -0.206825E-03  -0.193380E-06   0.382473E+00   0.483262E+01
   0.990000E+03  -0.211069E-03  -0.271668E-06   0.382494E+00   0.483262E+01
   0.100000E+04  -0.215305E-03  -0.352710E-06   0.382501E+00   0.483262E+01
   0.101000E+04  -0.219531E-03  -0.436385E-06   0.382517E+00   0.483262E+01
   0.102000E+04  -0.223740E-03  -0.522445E-06   0.382540E+00   0.483262E+01
   0.103000E+04  -0.227933E-03  -0.610885E-06   0.382571E+00   0.483262E+01
   0.104000E+04  -0.232110E-03  -0.701612E-06   0.382595E+00   0.483262E+01
   0.105000E+04  -0.236266E-03  -0.794436E-06   0.382612E+00   0.483262E+01
   0.106000E+04  -0.240402E-03  -0.889311E-06   0.382620E+00   0.483262E+01
   0.107000E+04  -0.244518E-03  -0.986196E-06   0.382629E+00   0.483262E+01
   0.108000E+04  -0.248608E-03  -0.108485E-05   0.382649E+00   0.483262E+01
   0.109000E+04  -0.252673E-03  -0.118518E-05   0.382673E+00   0.483262E+01
   0.110000E+04  -0.256713E-03  -0.128717E-05   0.382701E+00   0.483262E+01
   0.111000E+04  -0.260724E-03  -0.139061E-05   0.382718E+00   0.483262E+01
   0.112000E+04  -0.264705E-03  -0.149543E-05   0.382730E+00   0.483262E+01
   0.113000E+04  -0.268659E-03  -0.160164E-05   0.382734E+00   0.483262E+01
   0.114000E+04  -0.272581E-03  -0.170902E-05   0.382750E+00   0.483262E+01
   0.115000E+04  -0.276469E-03  -0.181741E-05   0.382771E+00   0.483262E+01
   0.116000E+04  -0.280324E-03  -0.192680E-05   0.382796E+00   0.483262E+01
   0.117000E+04  -0.284142E-03  -0.203704E-05   0.382810E+00   0.483262E+01
   0.118000E+04  -0.287923E-03  -0.214800E-05   0.382822E+00   0.483262E+01
   0.119000E+04  -0.291670E-03  -0.225972E-05   0.382824E+00   0.483262E+01
   0.120000E+04  -0.295381E-03  -0.237209E-05   0.382836E+00   0.483262E+01
   0.121000E+04  -0.299051E-03  -0.248482E-05   0.382856E+00   0.483262E+01
   0.122000E+04  -0.302680E-03  -0.259794E-05   0.382882E+00   0.483262E+01
   0.123000E+04  -0.306269E-03  -0.271140E-05   0.382897E+00   0.483262E+01
   0.124000E+04  -0.309814E-03  -0.282502E-05   0.382907E+00   0.483262E+01
   0.125000E+04  -0.313318E-03  -0.293888E-05   0.382909E+00   0.483262E+01
   0.126000E+04  -0.316781E-03  -0.305291E-05   0.382916E+00   0.483262E+01
   0.127000E+04  -0.320197E-03  -0.316681E-05   0.382931E+00   0.483262E+01
   0.128000E+04  -0.323566E-03  -0.328061E-05   0.382954E+00   0.483262E+01
   0.129000E+04  -0.326889E-03  -0.339427E-05   0.382970E+00   0.483262E+01
   0.130000E+04  -0.330163E-03  -0.350764E-05   0.382981E+00   0.483262E+01
   0.131000E+04  -0.333392E-03  -0.362078E-05   0.382985E+00   0.483262E+01
   0.132000E+04  -0.336577E-03  -0.373373E-05   0.382988E+00   0.483262E+01
   0.133000E+04  -0.339711E-03  -0.384619E-05   0.383003E+00   0.483262E+01
   0.134000E+04  -0.342796E-03  -0.395813E-05   0.383022E+00   0.483262E+01
   0.135000E+04  -0.345831E-03  -0.406958E-05   0.383039E+00   0.483262E+01
   0.136000E+04  -0.348814E-03  -0.418037E-05   0.383047E+00   0.483262E+01
   0.137000E+04  -0.351746E-03  -0.429053E-05   0.383051E+00   0.483262E+01
   0.138000E+04  -0.354631E-03  -0.440015E-05   0.383052E+00   0.483262E+01
   0.139000E+04  -0.357463E-03  -0.450898E-05   0.383064E+00   0.483262E+01
   0.140000E+04  -0.360242E-03  -0.461692E-05   0.383079E+00   0.483262E+01
   0.141000E+04  -0.362968E-03  -0.472402E-05   0.383098E+00   0.483262E+01
   0.142000E+04  -0.365641E-03  -0.483012E-05   0.383107E+00   0.483262E+01
   0.143000E+04  -0.368260E-03  -0.493524E-05   0.383112E+00   0.483262E+01
   0.144000E+04  -0.370830E-03  -0.503953E-05   0.383111E+00   0.483262E+01
   0.145000E+04  -0.373348E-03  -0.514279E-05   0.383119E+00   0.483262E+01
   0.146000E+04  -0.375812E-03  -0.524482E-05   0.383132E+00   0.483262E+01
   0.147000E+04  -0.378221E-03  -0.534567E-05   0.383150E+00   0.483262E+01
   0.148000E+04  -0.380575E-03  -0.544525E-05   0.383157E+00   0.483262E+01
   0.149000E+04  -0.382875E-03  -0.554351E-05   0.383163E+00   0.483262E+01
   0.150000E+04  -0.385124E-03  -0.564062E-05   0.383162E+00   0.483262E+01
   0.151000E+04  -0.387321E-03  -0.573646E-05   0.383168E+00   0.483262E+01
   0.152000E+04  -0.389462E-03  -0.583077E-05   0.383178E+00   0.483262E+01
   0.153000E+04  -0.391550E-03  -0.592362E-05   0.383196E+00   0.483262E+01
   0.154000E+04  -0.393584E-03  -0.601496E-05   0.383205E+00   0.483262E+01
   0.155000E+04  -0.395564E-03  -0.610475E-05   0.383212E+00   0.483262E+01
   0.156000E+04  -0.397495E-03  -0.619319E-05   0.383209E+00   0.483262E+01
   0.157000E+04  -0.399377E-03  -0.628022E-05   0.383211E+00   0.483262E+01
   0.158000E+04  -0.401206E-03  -0.636549E-05   0.383220E+00   0.483262E+01
   0.159000E+04  -0.402981E-03  -0.644905E-05   0.383237E+00   0.483262E+01
   0.160000E+04  -0.404705E-03  -0.653088E-05   0.383246E+00   0.483262E+01
   0.161000E+04  -0.406376E-03  -0.661093E-05   0.383251E+00   0.483262E+01
   0.162000E+04  -0.408000E-03  -0.668939E-05   0.383251E+00   0.483262E+01
   0.163000E+04  -0.409579E-03  -0.676626E-05   0.383252E+00   0.483262E+01
   0.164000E+04  -0.411105E-03  -0.684118E-05   0.383260E+00   0.483262E+01
   0.165000E+04  -0.412583E-03  -0.691426E-05   0.383275E+00   0.483262E+01
   0.166000E+04  -0.414012E-03  -0.698550E-05   0.383284E+00   0.483262E+01
   0.167000E+04  -0.415391E-03  -0.705479E-05   0.383290E+00   0.483262E+01
   0.168000E+04  -0.416727E-03  -0.712239E-05   0.383289E+00   0.483262E+01
   0.169000E+04  -0.418021E-03  -0.718829E-05   0.383288E+00   0.483262E+01
   0.170000E+04  -0.419267E-03  -0.725212E-05   0.383296E+00   0.483262E+01
   0.171000E+04  -0.420467E-03  -0.731393E-05   0.383311E+00   0.483262E+01
   0.172000E+04  -0.421621E-03  -0.737376E-05   0.383321E+00   0.483262E+01
   0.173000E+04  -0.422730E-03  -0.743152E-05   0.383325E+00   0.483262E+01
   0.174000E+04  -0.423797E-03  -0.748742E-05   0.383326E+00   0.483262E+01
   0.175000E+04  -0.424826E-03  -0.754152E-05   0.383324E+00   0.483262E+01
   0.176000E+04  -0.425810E-03  -0.759350E-05   0.383330E+00   0.483262E+01
   0.177000E+04  -0.426753E-03  -0.764340E-05   0.383342E+00   0.483262E+01
   0.178000E+04  -0.427654E-03  -0.769130E-05   0.383353E+00   0.483262E+01
   0.179000E+04  -0.428512E-03  -0.773707E-05   0.383358E+00   0.483262E+01
   0.180000E+04  -0.429333E-03  -0.778097E-05   0.383360E+00   0.483262E+01
   0.181000E+04  -0.430119E-03  -0.782305E-05   0.383356E+00   0.483262E+01
   0.182000E+04  -0.430865E-03  -0.786300E-05   0.383362E+00   0.483262E+01
   0.183000E+04  -0.431571E-03  -0.790085E-05   0.383373E+00   0.483262E+01
   0.184000E+04  -0.432238E-03  -0.793666E-05   0.383384E+00   0.483262E+01
   0.185000E+04  -0.432867E-03  -0.797034E-05   0.383387E+00   0.483262E+01
   0.186000E+04  -0.433460E-03  -0.800209E-05   0.383389E+00   0.483262E+01
   0.187000E+04  -0.434022E-03  -0.803204E-05   0.383385E+00   0.483262E+01
   0.188000E+04  -0.434547E-03  -0.805994E-05   0.383390E+00   0.483262E+01
   0.189000E+04  -0.435037E-03  -0.808577E-05   0.383399E+00   0.483262E+01
   0.190000E+04  -0.435493E-03  -0.810965E-05   0.383411E+00   0.483262E+01
   0.191000E+04  -0.435913E-03  -0.813149E-05   0.383415E+00   0.483262E+01
   0.192000E+04  -0.436302E-03  -0.815147E-05   0.383419E+00   0.483262E+01
   0.193000E+04  -0.436662E-03  -0.816971E-05   0.383413E+00   0.483262E+01
   0.194000E+04  -0.436990E-03  -0.818599E-05   0.383416E+00   0.483262E+01
   0.195000E+04  -0.437286E-03  -0.820024E-05   0.383423E+00   0.483262E+01
   0.196000E+04  -0.437550E-03  -0.821257E-05   0.383434E+00   0.483262E+01
   0.197000E+04  -0.437782E-03  -0.822285E-05   0.383438E+00   0.483262E+01
   0.198000E+04  -0.437986E-03  -0.823128E-05   0.383443E+00   0.483262E+01
   0.199000E+04  -0.438164E-03  -0.823803E-05   0.383438E+00   0.483262E+01
   0.200000E+04  -0.438315E-03  -0.824295E-05   0.383441E+00   0.483262E+01
   0.201000E+04  -0.438438E-03  -0.824591E-05   0.383446E+00   0.483262E+01
   0.202000E+04  -0.438533E-03  -0.824704E-05   0.383457E+00   0.483262E+01
   0.203000E+04  -0.438601E-03  -0.824628E-05   0.383461E+00   0.483262E+01
   0.204000E+04  -0.438644E-03  -0.824375E-05   0.383466E+00   0.483262E+01
   0.205000E+04  -0.438665E-03  -0.823961E-05   0.383460E+00   0.483262E+01
   0.206000E+04  -0.438661E-03  -0.823368E-05   0.383461E+00   0.483262E+01
   0.207000E+04  -0.438633E-03  -0.822584E-05   0.383464E+00   0.483262E+01
   0.208000E+04  -0.438580E-03  -0.821617E-05   0.383477E+00   0.483262E+01
   0.209000E+04  -0.438502E-03  -0.820459E-05   0.383481E+00   0.483262E+01
   0.210000E+04  -0.438402E-03  -0.819128E-05   0.383487E+00   0.483262E+01
   0.211000E+04  -0.438284E-03  -0.817641E-05   0.383482E+00   0.483262E+01
   0.212000E+04  -0.438146E-03  -0.815989E-05   0.383482E+00   0.483262E+01
   0.213000E+04  -0.437987E-03  -0.814151E-05   0.383484E+00   0.483262E+01
   0.214000E+04  -0.437807E-03  -0.812139E-05   0.383495E+00   0.483262E+01
   0.215000E+04  -0.437607E-03  -0.809952E-05   0.383498E+00   0.483262E+01
   0.216000E+04  -0.437386E-03  -0.807595E-05   0.383505E+00   0.483262E+01
   0.217000E+04  -0.437151E-03  -0.805088E-05   0.383499E+00   0.483262E+01
   0.218000E+04  -0.436899E-03  -0.802418E-05   0.383498E+00   0.483262E+01
   0.219000E+04  -0.436627E-03  -0.799565E-05   0.383500E+00   0.483262E+01
   0.220000E+04  -0.436338E-03  -0.796538E-05   0.383512E+00   0.483262E+01
   0.221000E+04  -0.436029E-03  -0.793335E-05   0.383517E+00   0.483262E+01
   0.222000E+04  -0.435705E-03  -0.789967E-05   0.383524E+00   0.483262E+01
   0.223000E+04  -0.435368E-03  -0.786455E-05   0.383518E+00   0.483262E+01
   0.224000E+04  -0.435018E-03  -0.782794E-05   0.383516E+00   0.483262E+01
   0.225000E+04  -0.434652E-03  -0.778956E-05   0.383516E+00   0.483262E+01
   0.226000E+04  -0.434270E-03  -0.774954E-05   0.383527E+00   0.483262E+01
   0.227000E+04  -0.433874E-03  -0.770789E-05   0.383531E+00   0.483262E+01
   0.228000E+04  -0.433463E-03  -0.766464E-05   0.383539E+00   0.483262E+01
   0.229000E+04  -0.433041E-03  -0.762001E-05   0.383533E+00   0.483262E+01
   0.230000E+04  -0.432609E-03  -0.757390E-05   0.383531E+00   0.483262E+01
   0.231000E+04  -0.432163E-03  -0.752608E-05   0.383532E+00   0.483262E+01
   0.232000E+04  -0.431703E-03  -0.747666E-05   0.383543E+00   0.483262E+01
   0.233000E+04  -0.431230E-03  -0.742562E-05   0.383548E+00   0.483262E+01
   0.234000E+04  -0.430744E-03  -0.737306E-05   0.383555E+00   0.483262E+01
   0.235000E+04  -0.430251E-03  -0.731919E-05   0.383550E+00   0.483262E+01
   0.236000E+04  -0.429750E-03  -0.726400E-05   0.383546E+00   0.483262E+01
   0.237000E+04  -0.429237E-03  -0.720718E-05   0.383546E+00   0.483262E+01
   0.238000E+04  -0.428713E-03  -0.714887E-05   0.383555E+00   0.483262E+01
   0.239000E+04  -0.428178E-03  -0.708908E-05   0.383560E+00   0.483262E+01
   0.240000E+04  -0.427633E-03  -0.702784E-05   0.383568E+00   0.483262E+01
   0.241000E+04  -0.427082E-03  -0.696539E-05   0.383563E+00   0.483262E+01
   0.242000E+04  -0.426524E-03  -0.690164E-05   0.383561E+00   0.483262E+01
   0.243000E+04  -0.425956E-03  -0.683636E-05   0.383561E+00   0.483262E+01
   0.244000E+04  -0.425379E-03  -0.676964E-05   0.383571E+00   0.483262E+01
   0.245000E+04  -0.424792E-03  -0.670150E-05   0.383576E+00   0.483262E+01
   0.246000E+04  -0.424196E-03  -0.663202E-05   0.383583E+00   0.483262E+01
   0.247000E+04  -0.423596E-03  -0.656141E-05   0.383577E+00   0.483262E+01
   0.248000E+04  -0.422992E-03  -0.648967E-05   0.383573E+00   0.483262E+01
   0.249000E+04  -0.422380E-03  -0.641650E-05   0.383572E+00   0.483262E+01
   0.250000E+04  -0.421760E-03  -0.634201E-05   0.383582E+00   0.483262E+01
   0.251000E+04  -0.421133E-03  -0.626627E-05   0.383587E+00   0.483262E+01
   0.252000E+04  -0.420499E-03  -0.618927E-05   0.383595E+00   0.483262E+01
   0.253000E+04  -0.419862E-03  -0.611126E-05   0.383590E+00   0.483262E+01
   0.254000E+04  -0.419221E-03  -0.603218E-05   0.383587E+00   0.483262E+01
   0.255000E+04  -0.418574E-03  -0.595176E-05   0.383586E+00   0.483262E+01
   0.256000E+04  -0.417920E-03  -0.587014E-05   0.383596E+00   0.483262E+01
   0.257000E+04  -0.417260E-03  -0.578730E-05   0.383601E+00   0.483262E+01
   0.258000E+04  -0.416594E-03  -0.570333E-05   0.383608E+00   0.483262E+01
   0.259000E+04  -0.415927E-03  -0.561844E-05   0.383602E+00   0.483262E+01
   0.260000E+04  -0.415258E-03  -0.553265E-05   0.383597E+00   0.483262E+01
   0.261000E+04  -0.414584E-03  -0.544564E-05   0.383596E+00   0.483262E+01
   0.262000E+04  -0.413906E-03  -0.535755E-05   0.383605E+00   0.483262E+01
   0.263000E+04  -0.413223E-03  -0.526842E-05   0.383610E+00   0.483262E+01
   0.264000E+04  -0.412535E-03  -0.517826E-05   0.383618E+00   0.483262E+01
   0.265000E+04  -0.411847E-03  -0.508730E-05   0.383614E+00   0.483262E+01
   0.266000E+04  -0.411158E-03  -0.499550E-05   0.383610E+00   0.483262E+01
   0.267000E+04  -0.410465E-03  -0.490260E-05   0.383609E+00   0.483262E+01
   0.268000E+04  -0.409768E-03  -0.480871E-05   0.383618E+00   0.483262E+01
   0.269000E+04  -0.409067E-03  -0.471384E-05   0.383623E+00   0.483262E+01
   0.270000E+04  -0.408362E-03  -0.461806E-05   0.383629E+00   0.483262E+01
   0.271000E+04  -0.407658E-03  -0.452159E-05   0.383623E+00   0.483262E+01
   0.272000E+04  -0.406955E-03  -0.442443E-05   0.383618E+00   0.483262E+01
   0.273000E+04  -0.406249E-03  -0.432628E-05   0.383617E+00   0.483262E+01
   0.274000E+04  -0.405540E-03  -0.422728E-05   0.383626E+00   0.483262E+01
   0.275000E+04  -0.404829E-03  -0.412746E-05   0.383631E+00   0.483262E+01
   0.276000E+04  -0.404115E-03  -0.402685E-05   0.383639E+00   0.483262E+01
   0.277000E+04  -0.403403E-03  -0.392565E-05   0.383634E+00   0.483262E+01
   0.278000E+04  -0.402692E-03  -0.382384E-05   0.383630E+00   0.483262E+01
   0.279000E+04  -0.401978E-03  -0.372116E-05   0.383629E+00   0.483262E+01
   0.280000E+04  -0.401262E-03  -0.361771E-05   0.383638E+00   0.483262E+01
   0.281000E+04  -0.400544E-03  -0.351352E-05   0.383642E+00   0.483262E+01
   0.282000E+04  -0.399824E-03  -0.340864E-05   0.383648E+00   0.483262E+01
   0.283000E+04  -0.399106E-03  -0.330328E-05   0.383642E+00   0.483262E+01
   0.284000E+04  -0.398391E-03  -0.319744E-05   0.383637E+00   0.483262E+01
   0.285000E+04  -0.397674E-03  -0.309085E-05   0.383636E+00   0.483262E+01
   0.286000E+04  -0.396955E-03  -0.298363E-05   0.383645E+00   0.483262E+01
   0.287000E+04  -0.396236E-03  -0.287581E-05   0.383650E+00   0.483262E+01
   0.288000E+04  -0.395516E-03  -0.276741E-05   0.383657E+00   0.483262E+01
   0.289000E+04  -0.394798E-03  -0.265865E-05   0.383652E+00   0.483262E+01
   0.290000E+04  -0.394083E-03  -0.254948E-05   0.383647E+00   0.483262E+01
   0.291000E+04  -0.393366E-03  -0.243967E-05   0.383646E+00   0.483262E+01
   0.292000E+04  -0.392649E-03  -0.232931E-05   0.383655E+00   0.483262E+01
   0.293000E+04  -0.391930E-03  -0.221842E-05   0.383660E+00   0.483262E+01
   0.294000E+04  -0.391211E-03  -0.210704E-05   0.383664E+00   0.483262E+01
   0.295000E+04  -0.390495E-03  -0.199539E-05   0.383658E+00   0.483262E+01
   0.296000E+04  -0.389782E-03  -0.188347E-05   0.383653E+00   0.483262E+01
   0.297000E+04  -0.389069E-03  -0.177100E-05   0.383652E+00   0.483262E+01
   0.298000E+04  -0.388355E-03  -0.165809E-05   0.383661E+00   0.483262E+01
   0.299000E+04  -0.387642E-03  -0.154481E-05   0.383666E+00   0.483262E+01
   0.300000E+04  -0.386928E-03  -0.143113E-05   0.383672E+00   0.483262E+01
   0.301000E+04  -0.386218E-03  -0.131729E-05   0.383666E+00   0.483262E+01
   0.302000E+04  -0.385511E-03  -0.120323E-05   0.383662E+00   0.483262E+01
   0.303000E+04  -0.384804E-03  -0.108873E-05   0.383661E+00   0.483262E+01
   0.304000E+04  -0.384096E-03  -0.973889E-06   0.383670E+00   0.483262E+01
   0.305000E+04  -0.383388E-03  -0.858690E-06   0.383674E+00   0.483262E+01
   0.306000E+04  -0.382680E-03  -0.743197E-06   0.383678E+00   0.483262E+01
   0.307000E+04  -0.381976E-03  -0.627604E-06   0.383671E+00   0.483262E+01
   0.308000E+04  -0.381277E-03  -0.511911E-06   0.383666E+00   0.483262E+01
   0.309000E+04  -0.380577E-03  -0.395856E-06   0.383666E+00   0.483262E+01
   0.310000E+04  -0.379877E-03  -0.279552E-06   0.383675E+00   0.483262E+01
   0.311000E+04  -0.379179E-03  -0.163035E-06   0.383679E+00   0.483262E+01
   0.312000E+04  -0.378480E-03  -0.463125E-07   0.383685E+00   0.483262E+01
   0.313000E+04  -0.377786E-03   0.704107E-07   0.383678E+00   0.483262E+01
   0.314000E+04  -0.377096E-03   0.187184E-06   0.383674E+00   0.483262E+01
   0.315000E+04  -0.376406E-03   0.304226E-06   0.383673E+00   0.483262E+01
   0.316000E+04  -0.375716E-03   0.421444E-06   0.383682E+00   0.483262E+01
   0.317000E+04  -0.375026E-03   0.538852E-06   0.383685E+00   0.483262E+01
   0.318000E+04  -0.374337E-03   0.656397E-06   0.383689E+00   0.483262E+01
   0.319000E+04  -0.373652E-03   0.773889E-06   0.383682E+00   0.483262E+01
   0.320000E+04  -0.372972E-03   0.891337E-06   0.383677E+00   0.483262E+01
   0.321000E+04  -0.372292E-03   0.100898E-05   0.383677E+00   0.483262E+01
   0.322000E+04  -0.371613E-03   0.112673E-05   0.383686E+00   0.483262E+01
   0.323000E+04  -0.370935E-03   0.124453E-05   0.383691E+00   0.483262E+01
   0.324000E+04  -0.370258E-03   0.136240E-05   0.383695E+00   0.483262E+01
   0.325000E+04  -0.369586E-03   0.148012E-05   0.383688E+00   0.483262E+01
   0.326000E+04  -0.368917E-03   0.159775E-05   0.383684E+00   0.483262E+01
   0.327000E+04  -0.368250E-03   0.171550E-05   0.383683E+00   0.483262E+01
   0.328000E+04  -0.367583E-03   0.183329E-05   0.383692E+00   0.483262E+01
   0.329000E+04  -0.366916E-03   0.195113E-05   0.383695E+00   0.483262E+01
   0.330000E+04  -0.366251E-03   0.206898E-05   0.383698E+00   0.483262E+01
   0.331000E+04  -0.365590E-03   0.218664E-05   0.383691E+00   0.483262E+01
   0.332000E+04  -0.364934E-03   0.230415E-05   0.383687E+00   0.483262E+01
   0.333000E+04  -0.364278E-03   0.242172E-05   0.383686E+00   0.483262E+01
   0.334000E+04  -0.363624E-03   0.253925E-05   0.383696E+00   0.483262E+01
   0.335000E+04  -0.362971E-03   0.265673E-05   0.383700E+00   0.483262E+01
   0.336000E+04  -0.362319E-03   0.277415E-05   0.383704E+00   0.483262E+01
   0.337000E+04  -0.361672E-03   0.289130E-05   0.383697E+00   0.483262E+01
   0.338000E+04  -0.361030E-03   0.300825E-05   0.383692E+00   0.483262E+01
   0.339000E+04  -0.360388E-03   0.312521E-05   0.383691E+00   0.483262E+01
   0.340000E+04  -0.359747E-03   0.324208E-05   0.383700E+00   0.483262E+01
   0.341000E+04  -0.359107E-03   0.335890E-05   0.383703E+00   0.483262E+01
   0.342000E+04  -0.358468E-03   0.347562E-05   0.383706E+00   0.483262E+01
   0.343000E+04  -0.357834E-03   0.359206E-05   0.383699E+00   0.483262E+01
   0.344000E+04  -0.357205E-03   0.370825E-05   0.383695E+00   0.483262E+01
   0.345000E+04  -0.356577E-03   0.382438E-05   0.383695E+00   0.483262E+01
   0.346000E+04  -0.355950E-03   0.394039E-05   0.383704E+00   0.483262E+01
   0.347000E+04  -0.355324E-03   0.405625E-05   0.383708E+00   0.483262E+01
   0.348000E+04  -0.354700E-03   0.417194E-05   0.383711E+00   0.483262E+01
   0.349000E+04  -0.354081E-03   0.428728E-05   0.383704E+00   0.483262E+01
   0.350000E+04  -0.353466E-03   0.440233E-05   0.383699E+00   0.483262E+01
   0.351000E+04  -0.352853E-03   0.451730E-05   0.383698E+00   0.483262E+01
   0.352000E+04  -0.352240E-03   0.463209E-05   0.383708E+00   0.483262E+01
   0.353000E+04  -0.351629E-03   0.474675E-05   0.383710E+00   0.483262E+01
   0.354000E+04  -0.351019E-03   0.486122E-05   0.383712E+00   0.483262E+01
   0.355000E+04  -0.350414E-03   0.497533E-05   0.383706E+00   0.483262E+01
   0.356000E+04  -0.349813E-03   0.508912E-05   0.383702E+00   0.483262E+01
   0.357000E+04  -0.349213E-03   0.520278E-05   0.383702E+00   0.483262E+01
   0.358000E+04  -0.348615E-03   0.531623E-05   0.383712E+00   0.483262E+01
   0.359000E+04  -0.348019E-03   0.542946E-05   0.383715E+00   0.483262E+01
   0.360000E+04  -0.347424E-03   0.554245E-05   0.383718E+00   0.483262E+01
   0.361000E+04  -0.346834E-03   0.565502E-05   0.383710E+00   0.483262E+01
   0.362000E+04  -0.346248E-03   0.576724E-05   0.383705E+00   0.483262E+01
   0.363000E+04  -0.345664E-03   0.587930E-05   0.383704E+00   0.483262E+01
   0.364000E+04  -0.345081E-03   0.599112E-05   0.383714E+00   0.483262E+01
   0.365000E+04  -0.344499E-03   0.610274E-05   0.383716E+00   0.483262E+01
   0.366000E+04  -0.343919E-03   0.621411E-05   0.383718E+00   0.483262E+01
   0.367000E+04  -0.343343E-03   0.632507E-05   0.383712E+00   0.483262E+01
   0.368000E+04  -0.342772E-03   0.643565E-05   0.383708E+00   0.483262E+01
   0.369000E+04  -0.342202E-03   0.654603E-05   0.383708E+00   0.483262E+01
   0.370000E+04  -0.341633E-03   0.665615E-05   0.383718E+00   0.483262E+01
   0.371000E+04  -0.341066E-03   0.676599E-05   0.383721E+00   0.483262E+01
   0.372000E+04  -0.340501E-03   0.687555E-05   0.383723E+00   0.483262E+01
   0.373000E+04  -0.339941E-03   0.698463E-05   0.383715E+00   0.483262E+01
   0.374000E+04  -0.339385E-03   0.709332E-05   0.383710E+00   0.483262E+01
   0.375000E+04  -0.338831E-03   0.720179E-05   0.383709E+00   0.483262E+01
   0.376000E+04  -0.338277E-03   0.730999E-05   0.383719E+00   0.483262E+01
   0.377000E+04  -0.337725E-03   0.741792E-05   0.383722E+00   0.483262E+01
   0.378000E+04  -0.337175E-03   0.752556E-05   0.383724E+00   0.483262E+01
   0.379000E+04  -0.336629E-03   0.763275E-05   0.383717E+00   0.483262E+01
   0.380000E+04  -0.336087E-03   0.773951E-05   0.383713E+00   0.483262E+01
   0.381000E+04  -0.335547E-03   0.784604E-05   0.383713E+00   0.483262E+01
   0.382000E+04  -0.335008E-03   0.795226E-05   0.383723E+00   0.483262E+01
   0.383000E+04  -0.334471E-03   0.805817E-05   0.383726E+00   0.483262E+01
   0.384000E+04  -0.333935E-03   0.816375E-05   0.383728E+00   0.483262E+01
   0.385000E+04  -0.333405E-03   0.826883E-05   0.383719E+00   0.483262E+01
   0.386000E+04  -0.332878E-03   0.837348E-05   0.383714E+00   0.483262E+01
   0.387000E+04  -0.332354E-03   0.847787E-05   0.383713E+00   0.483262E+01
   0.388000E+04  -0.331830E-03   0.858195E-05   0.383724E+00   0.483262E+01
   0.389000E+04  -0.331307E-03   0.868573E-05   0.383727E+00   0.483262E+01
   0.390000E+04  -0.330787E-03   0.878920E-05   0.383728E+00   0.483262E+01
   0.391000E+04  -0.330270E-03   0.889217E-05   0.383722E+00   0.483262E+01
   0.392000E+04  -0.329758E-03   0.899469E-05   0.383717E+00   0.483262E+01
   0.393000E+04  -0.329247E-03   0.909694E-05   0.383717E+00   0.483262E+01