title="breakthrough data set at     5 wells"
variables="time(days)","cavg","cpk","upk","zswi"
zone i=     1295
   0.100000E+02   0.545685E-08   0.749649E-08   0.434960E+00   0.485169E+01
   0.200000E+02   0.107616E-07   0.147919E-07   0.357481E+00   0.482818E+01
   0.300000E+02   0.192099E-07   0.264225E-07   0.356690E+00   0.482818E+01
   0.400000E+02   0.320952E-07   0.441003E-07   0.356323E+00   0.482818E+01
   0.500000E+02   0.510318E-07   0.699492E-07   0.356035E+00   0.482818E+01
   0.600000E+02   0.779764E-07   0.106525E-06   0.355803E+00   0.482818E+01
   0.700000E+02   0.115216E-06   0.156789E-06   0.355587E+00   0.482818E+01
   0.800000E+02   0.165274E-06   0.223967E-06   0.355428E+00   0.482818E+01
   0.900000E+02   0.230871E-06   0.311490E-06   0.355284E+00   0.482818E+01
   0.100000E+03   0.314819E-06   0.422855E-06   0.355150E+00   0.482818E+01
   0.110000E+03   0.419927E-06   0.561488E-06   0.355026E+00   0.482818E+01
   0.120000E+03   0.548905E-06   0.730630E-06   0.354911E+00   0.482818E+01
   0.130000E+03   0.703793E-06   0.932652E-06   0.354918E+00   0.482818E+01
   0.140000E+03   0.887044E-06   0.117032E-05   0.354802E+00   0.482818E+01
   0.150000E+03   0.110050E-05   0.144561E-05   0.354695E+00   0.482818E+01
   0.160000E+03   0.134564E-05   0.175996E-05   0.354596E+00   0.482818E+01
   0.170000E+03   0.162360E-05   0.211437E-05   0.354503E+00   0.482818E+01
   0.180000E+03   0.193514E-05   0.250934E-05   0.354415E+00   0.482818E+01
   0.190000E+03   0.228074E-05   0.294497E-05   0.354333E+00   0.482818E+01
   0.200000E+03   0.266051E-05   0.342093E-05   0.354255E+00   0.482818E+01
   0.210000E+03   0.307434E-05   0.393657E-05   0.354181E+00   0.482818E+01
   0.220000E+03   0.352183E-05   0.449092E-05   0.354111E+00   0.482818E+01
   0.230000E+03   0.400236E-05   0.508273E-05   0.354044E+00   0.482818E+01
   0.240000E+03   0.451514E-05   0.571052E-05   0.353980E+00   0.482818E+01
   0.250000E+03   0.505915E-05   0.637260E-05   0.353919E+00   0.482818E+01
   0.260000E+03   0.563327E-05   0.706713E-05   0.353861E+00   0.482818E+01
   0.270000E+03   0.623622E-05   0.779213E-05   0.353805E+00   0.482818E+01
   0.280000E+03   0.686662E-05   0.854553E-05   0.353751E+00   0.482818E+01
   0.290000E+03   0.752301E-05   0.932520E-05   0.353699E+00   0.482818E+01
   0.300000E+03   0.820386E-05   0.101289E-04   0.353650E+00   0.482818E+01
   0.310000E+03   0.890760E-05   0.109546E-04   0.353601E+00   0.482818E+01
   0.320000E+03   0.963263E-05   0.118000E-04   0.353555E+00   0.482818E+01
   0.330000E+03   0.103773E-04   0.126629E-04   0.353510E+00   0.482818E+01
   0.340000E+03   0.111401E-04   0.135413E-04   0.353467E+00   0.482818E+01
   0.350000E+03   0.119193E-04   0.144331E-04   0.353425E+00   0.482818E+01
   0.360000E+03   0.127134E-04   0.153364E-04   0.353385E+00   0.482818E+01
   0.370000E+03   0.135209E-04   0.162493E-04   0.353346E+00   0.482818E+01
   0.380000E+03   0.143401E-04   0.171700E-04   0.353308E+00   0.482818E+01
   0.390000E+03   0.151696E-04   0.180968E-04   0.353272E+00   0.482818E+01
   0.400000E+03   0.160080E-04   0.190280E-04   0.353237E+00   0.482818E+01
   0.410000E+03   0.168539E-04   0.199620E-04   0.353203E+00   0.482818E+01
   0.420000E+03   0.177058E-04   0.208976E-04   0.353170E+00   0.482818E+01
   0.430000E+03   0.185625E-04   0.218332E-04   0.353139E+00   0.482818E+01
   0.440000E+03   0.194227E-04   0.227676E-04   0.353108E+00   0.482818E+01
   0.450000E+03   0.202851E-04   0.236996E-04   0.353079E+00   0.482818E+01
   0.460000E+03   0.211485E-04   0.246279E-04   0.353051E+00   0.482818E+01
   0.470000E+03   0.220117E-04   0.255515E-04   0.353024E+00   0.482818E+01
   0.480000E+03   0.228736E-04   0.264693E-04   0.352998E+00   0.482818E+01
   0.490000E+03   0.237330E-04   0.273804E-04   0.352973E+00   0.482818E+01
   0.500000E+03   0.245888E-04   0.282837E-04   0.352949E+00   0.482818E+01
   0.510000E+03   0.254399E-04   0.291783E-04   0.352927E+00   0.482818E+01
   0.520000E+03   0.262852E-04   0.300633E-04   0.352905E+00   0.482818E+01
   0.530000E+03   0.271237E-04   0.309380E-04   0.352884E+00   0.482818E+01
   0.540000E+03   0.279543E-04   0.318014E-04   0.352864E+00   0.482818E+01
   0.550000E+03   0.287762E-04   0.326529E-04   0.352845E+00   0.482818E+01
   0.560000E+03   0.295883E-04   0.334916E-04   0.352827E+00   0.482818E+01
   0.570000E+03   0.303898E-04   0.343169E-04   0.352810E+00   0.482818E+01
   0.580000E+03   0.311797E-04   0.351281E-04   0.352794E+00   0.482818E+01
   0.590000E+03   0.319573E-04   0.359246E-04   0.352779E+00   0.482818E+01
   0.600000E+03   0.327219E-04   0.367058E-04   0.352764E+00   0.482818E+01
   0.610000E+03   0.334728E-04   0.374714E-04   0.352750E+00   0.482818E+01
   0.620000E+03   0.342093E-04   0.382207E-04   0.352737E+00   0.482818E+01
   0.630000E+03   0.349309E-04   0.389535E-04   0.352725E+00   0.482818E+01
   0.640000E+03   0.356371E-04   0.396694E-04   0.352713E+00   0.482818E+01
   0.650000E+03   0.363275E-04   0.403681E-04   0.352702E+00   0.482818E+01
   0.660000E+03   0.370017E-04   0.410494E-04   0.352691E+00   0.482818E+01
   0.670000E+03   0.376595E-04   0.417132E-04   0.352681E+00   0.482818E+01
   0.680000E+03   0.383007E-04   0.423594E-04   0.352672E+00   0.482818E+01
   0.690000E+03   0.389250E-04   0.429879E-04   0.352663E+00   0.482818E+01
   0.700000E+03   0.395325E-04   0.435988E-04   0.352654E+00   0.482818E+01
   0.710000E+03   0.401231E-04   0.441920E-04   0.352646E+00   0.482818E+01
   0.720000E+03   0.406968E-04   0.447678E-04   0.352639E+00   0.482818E+01
   0.730000E+03   0.412537E-04   0.453263E-04   0.352632E+00   0.482818E+01
   0.740000E+03   0.417939E-04   0.458676E-04   0.352625E+00   0.482818E+01
   0.750000E+03   0.423176E-04   0.463921E-04   0.352619E+00   0.482818E+01
   0.760000E+03   0.428252E-04   0.469000E-04   0.352613E+00   0.482818E+01
   0.770000E+03   0.433167E-04   0.473916E-04   0.352608E+00   0.482818E+01
   0.780000E+03   0.437926E-04   0.478673E-04   0.352602E+00   0.482818E+01
   0.790000E+03   0.442532E-04   0.483274E-04   0.352598E+00   0.482818E+01
   0.800000E+03   0.446988E-04   0.487724E-04   0.352593E+00   0.482818E+01
   0.810000E+03   0.451299E-04   0.492026E-04   0.352589E+00   0.482818E+01
   0.820000E+03   0.455469E-04   0.496185E-04   0.352585E+00   0.482818E+01
   0.830000E+03   0.459503E-04   0.500206E-04   0.352581E+00   0.482818E+01
   0.840000E+03   0.463405E-04   0.504093E-04   0.352578E+00   0.482818E+01
   0.850000E+03   0.467180E-04   0.507852E-04   0.352575E+00   0.482818E+01
   0.860000E+03   0.470833E-04   0.511486E-04   0.352572E+00   0.482818E+01
   0.870000E+03   0.474369E-04   0.515001E-04   0.352570E+00   0.482818E+01
   0.880000E+03   0.477794E-04   0.518402E-04   0.352568E+00   0.482818E+01
   0.890000E+03   0.481112E-04   0.521694E-04   0.352566E+00   0.482818E+01
   0.900000E+03   0.484329E-04   0.524881E-04   0.352564E+00   0.482818E+01
   0.910000E+03   0.487450E-04   0.527968E-04   0.352563E+00   0.482818E+01
   0.920000E+03   0.490480E-04   0.530961E-04   0.352561E+00   0.482818E+01
   0.930000E+03   0.493424E-04   0.533863E-04   0.352560E+00   0.482818E+01
   0.940000E+03   0.496288E-04   0.536680E-04   0.352559E+00   0.482818E+01
   0.950000E+03   0.499076E-04   0.539415E-04   0.352558E+00   0.482818E+01
   0.960000E+03   0.501794E-04   0.542073E-04   0.352558E+00   0.482818E+01
   0.970000E+03   0.504445E-04   0.544659E-04   0.352557E+00   0.482818E+01
   0.980000E+03   0.507036E-04   0.547176E-04   0.352557E+00   0.482818E+01
   0.990000E+03   0.509569E-04   0.549628E-04   0.352556E+00   0.482818E+01
   0.100000E+04   0.512050E-04   0.552020E-04   0.352556E+00   0.482818E+01
   0.101000E+04   0.514483E-04   0.554354E-04   0.352556E+00   0.482818E+01
   0.102000E+04   0.516871E-04   0.556634E-04   0.352556E+00   0.482818E+01
   0.103000E+04   0.519220E-04   0.558864E-04   0.352556E+00   0.482818E+01
   0.104000E+04   0.521532E-04   0.561047E-04   0.352556E+00   0.482818E+01
   0.105000E+04   0.523812E-04   0.563186E-04   0.352556E+00   0.482818E+01
   0.106000E+04   0.526063E-04   0.565285E-04   0.352556E+00   0.482818E+01
   0.107000E+04   0.528289E-04   0.567345E-04   0.352556E+00   0.482818E+01
   0.108000E+04   0.530493E-04   0.569371E-04   0.352556E+00   0.482818E+01
   0.109000E+04   0.532677E-04   0.571363E-04   0.352556E+00   0.482818E+01
   0.110000E+04   0.534846E-04   0.573326E-04   0.352556E+00   0.482818E+01
   0.111000E+04   0.537002E-04   0.575262E-04   0.352556E+00   0.482818E+01
   0.112000E+04   0.539147E-04   0.577172E-04   0.352556E+00   0.482818E+01
   0.113000E+04   0.541285E-04   0.579059E-04   0.352556E+00   0.482818E+01
   0.114000E+04   0.543417E-04   0.580925E-04   0.352556E+00   0.482818E+01
   0.115000E+04   0.545546E-04   0.582771E-04   0.352556E+00   0.482818E+01
   0.116000E+04   0.547674E-04   0.584599E-04   0.352556E+00   0.482818E+01
   0.117000E+04   0.549803E-04   0.586412E-04   0.352557E+00   0.482818E+01
   0.118000E+04   0.551934E-04   0.588209E-04   0.352557E+00   0.482818E+01
   0.119000E+04   0.554069E-04   0.589993E-04   0.352557E+00   0.482818E+01
   0.120000E+04   0.556209E-04   0.591764E-04   0.352558E+00   0.482818E+01
   0.121000E+04   0.558354E-04   0.593525E-04   0.352558E+00   0.482818E+01
   0.122000E+04   0.560507E-04   0.595274E-04   0.352558E+00   0.482818E+01
   0.123000E+04   0.562666E-04   0.597014E-04   0.352559E+00   0.482818E+01
   0.124000E+04   0.564834E-04   0.598745E-04   0.352559E+00   0.482818E+01
   0.125000E+04   0.567009E-04   0.600468E-04   0.352559E+00   0.482818E+01
   0.126000E+04   0.569193E-04   0.602182E-04   0.352560E+00   0.482818E+01
   0.127000E+04   0.571385E-04   0.603889E-04   0.352560E+00   0.482818E+01
   0.128000E+04   0.573586E-04   0.605588E-04   0.352560E+00   0.482818E+01
   0.129000E+04   0.575794E-04   0.607280E-04   0.352561E+00   0.482818E+01
   0.130000E+04   0.578010E-04   0.608965E-04   0.352561E+00   0.482818E+01
   0.131000E+04   0.580234E-04   0.610643E-04   0.352562E+00   0.482818E+01
   0.132000E+04   0.582464E-04   0.612314E-04   0.352562E+00   0.482818E+01
   0.133000E+04   0.584701E-04   0.613978E-04   0.352562E+00   0.482818E+01
   0.134000E+04   0.586944E-04   0.615635E-04   0.352562E+00   0.482818E+01
   0.135000E+04   0.589191E-04   0.617285E-04   0.352563E+00   0.482818E+01
   0.136000E+04   0.591444E-04   0.618928E-04   0.352563E+00   0.482818E+01
   0.137000E+04   0.593700E-04   0.620563E-04   0.352563E+00   0.482818E+01
   0.138000E+04   0.595959E-04   0.622191E-04   0.352563E+00   0.482818E+01
   0.139000E+04   0.598220E-04   0.623811E-04   0.352563E+00   0.482818E+01
   0.140000E+04   0.600483E-04   0.625422E-04   0.352563E+00   0.482818E+01
   0.141000E+04   0.602746E-04   0.627026E-04   0.352564E+00   0.482818E+01
   0.142000E+04   0.605009E-04   0.628621E-04   0.352564E+00   0.482818E+01
   0.143000E+04   0.607271E-04   0.630208E-04   0.352564E+00   0.482818E+01
   0.144000E+04   0.609531E-04   0.631785E-04   0.352564E+00   0.482818E+01
   0.145000E+04   0.611789E-04   0.633354E-04   0.352564E+00   0.482818E+01
   0.146000E+04   0.614044E-04   0.634913E-04   0.352564E+00   0.482818E+01
   0.147000E+04   0.616294E-04   0.636463E-04   0.352564E+00   0.482818E+01
   0.148000E+04   0.618541E-04   0.638003E-04   0.352564E+00   0.482818E+01
   0.149000E+04   0.620783E-04   0.639534E-04   0.352564E+00   0.482818E+01
   0.150000E+04   0.623021E-04   0.641056E-04   0.352564E+00   0.482818E+01
   0.151000E+04   0.625253E-04   0.642840E-04   0.352564E+00   0.482818E+01
   0.152000E+04   0.627480E-04   0.645577E-04   0.352564E+00   0.482818E+01
   0.153000E+04   0.629701E-04   0.648315E-04   0.352564E+00   0.482818E+01
   0.154000E+04   0.631917E-04   0.651053E-04   0.352564E+00   0.482818E+01
   0.155000E+04   0.634129E-04   0.653791E-04   0.352564E+00   0.482818E+01
   0.156000E+04   0.636335E-04   0.656530E-04   0.352564E+00   0.482818E+01
   0.157000E+04   0.638536E-04   0.659270E-04   0.352564E+00   0.482818E+01
   0.158000E+04   0.640733E-04   0.662010E-04   0.352564E+00   0.482818E+01
   0.159000E+04   0.642927E-04   0.664752E-04   0.352564E+00   0.482818E+01
   0.160000E+04   0.645118E-04   0.667496E-04   0.352564E+00   0.482818E+01
   0.161000E+04   0.647306E-04   0.670243E-04   0.352563E+00   0.482818E+01
   0.162000E+04   0.649494E-04   0.672993E-04   0.352563E+00   0.482818E+01
   0.163000E+04   0.651681E-04   0.675748E-04   0.352563E+00   0.482818E+01
   0.164000E+04   0.653869E-04   0.678508E-04   0.352563E+00   0.482818E+01
   0.165000E+04   0.656059E-04   0.681275E-04   0.352563E+00   0.482818E+01
   0.166000E+04   0.658253E-04   0.684049E-04   0.352563E+00   0.482818E+01
   0.167000E+04   0.660452E-04   0.686834E-04   0.352563E+00   0.482818E+01
   0.168000E+04   0.662658E-04   0.689630E-04   0.352563E+00   0.482818E+01
   0.169000E+04   0.664872E-04   0.692440E-04   0.352564E+00   0.482818E+01
   0.170000E+04   0.667097E-04   0.695265E-04   0.352563E+00   0.482818E+01
   0.171000E+04   0.669334E-04   0.698109E-04   0.352562E+00   0.482818E+01
   0.172000E+04   0.671586E-04   0.700972E-04   0.352564E+00   0.482818E+01
   0.173000E+04   0.673853E-04   0.703859E-04   0.352565E+00   0.482818E+01
   0.174000E+04   0.676139E-04   0.706772E-04   0.352563E+00   0.482818E+01
   0.175000E+04   0.678445E-04   0.709714E-04   0.352562E+00   0.482818E+01
   0.176000E+04   0.680774E-04   0.712687E-04   0.352565E+00   0.482818E+01
   0.177000E+04   0.683121E-04   0.715693E-04   0.352574E+00   0.482818E+01
   0.178000E+04   0.685497E-04   0.718738E-04   0.352578E+00   0.482818E+01
   0.179000E+04   0.687906E-04   0.721832E-04   0.352566E+00   0.482818E+01
   0.180000E+04   0.690346E-04   0.724967E-04   0.352579E+00   0.482818E+01
   0.181000E+04   0.692817E-04   0.728144E-04   0.352602E+00   0.482818E+01
   0.182000E+04   0.695323E-04   0.731369E-04   0.352612E+00   0.482818E+01
   0.183000E+04   0.697868E-04   0.734651E-04   0.352605E+00   0.482818E+01
   0.184000E+04   0.700452E-04   0.737992E-04   0.352595E+00   0.482818E+01
   0.185000E+04   0.703076E-04   0.741388E-04   0.352602E+00   0.482818E+01
   0.186000E+04   0.705737E-04   0.745009E-04   0.352619E+00   0.482818E+01
   0.187000E+04   0.708439E-04   0.750150E-04   0.352625E+00   0.482818E+01
   0.188000E+04   0.711185E-04   0.755391E-04   0.352616E+00   0.482818E+01
   0.189000E+04   0.713976E-04   0.760733E-04   0.352607E+00   0.482818E+01
   0.190000E+04   0.716813E-04   0.766174E-04   0.352612E+00   0.482818E+01
   0.191000E+04   0.719693E-04   0.771709E-04   0.352627E+00   0.482818E+01
   0.192000E+04   0.722619E-04   0.777346E-04   0.352631E+00   0.482818E+01
   0.193000E+04   0.725595E-04   0.783093E-04   0.352622E+00   0.482818E+01
   0.194000E+04   0.728623E-04   0.788952E-04   0.352613E+00   0.482818E+01
   0.195000E+04   0.731700E-04   0.794918E-04   0.352618E+00   0.482818E+01
   0.196000E+04   0.734826E-04   0.800990E-04   0.352632E+00   0.482818E+01
   0.197000E+04   0.738004E-04   0.807173E-04   0.352635E+00   0.482818E+01
   0.198000E+04   0.741237E-04   0.813477E-04   0.352625E+00   0.482818E+01
   0.199000E+04   0.744527E-04   0.819904E-04   0.352616E+00   0.482818E+01
   0.200000E+04   0.747870E-04   0.826448E-04   0.352621E+00   0.482818E+01
   0.201000E+04   0.751267E-04   0.833107E-04   0.352635E+00   0.482818E+01
   0.202000E+04   0.754719E-04   0.839888E-04   0.352639E+00   0.482818E+01
   0.203000E+04   0.758231E-04   0.846800E-04   0.352628E+00   0.482818E+01
   0.204000E+04   0.761803E-04   0.853845E-04   0.352619E+00   0.482818E+01
   0.205000E+04   0.765433E-04   0.861019E-04   0.352623E+00   0.482818E+01
   0.206000E+04   0.769120E-04   0.868319E-04   0.352636E+00   0.482818E+01
   0.207000E+04   0.772867E-04   0.875752E-04   0.352639E+00   0.482818E+01
   0.208000E+04   0.776676E-04   0.883328E-04   0.352629E+00   0.482818E+01
   0.209000E+04   0.780550E-04   0.891051E-04   0.352620E+00   0.482818E+01
   0.210000E+04   0.784485E-04   0.898914E-04   0.352625E+00   0.482818E+01
   0.211000E+04   0.788480E-04   0.906914E-04   0.352638E+00   0.482818E+01
   0.212000E+04   0.792539E-04   0.915062E-04   0.352640E+00   0.482818E+01
   0.213000E+04   0.796665E-04   0.923369E-04   0.352629E+00   0.482818E+01
   0.214000E+04   0.800858E-04   0.931836E-04   0.352620E+00   0.482818E+01
   0.215000E+04   0.805117E-04   0.940458E-04   0.352625E+00   0.482818E+01
   0.216000E+04   0.809440E-04   0.949231E-04   0.352639E+00   0.482818E+01
   0.217000E+04   0.813829E-04   0.958166E-04   0.352641E+00   0.482818E+01
   0.218000E+04   0.818289E-04   0.967274E-04   0.352630E+00   0.482818E+01
   0.219000E+04   0.822821E-04   0.976557E-04   0.352621E+00   0.482818E+01
   0.220000E+04   0.827422E-04   0.986008E-04   0.352625E+00   0.482818E+01
   0.221000E+04   0.832091E-04   0.995624E-04   0.352639E+00   0.482818E+01
   0.222000E+04   0.836830E-04   0.100542E-03   0.352640E+00   0.482818E+01
   0.223000E+04   0.841644E-04   0.101539E-03   0.352629E+00   0.482818E+01
   0.224000E+04   0.846533E-04   0.102555E-03   0.352621E+00   0.482818E+01
   0.225000E+04   0.851493E-04   0.103589E-03   0.352626E+00   0.482818E+01
   0.226000E+04   0.856524E-04   0.104640E-03   0.352640E+00   0.482818E+01
   0.227000E+04   0.861627E-04   0.105708E-03   0.352641E+00   0.482818E+01
   0.228000E+04   0.866807E-04   0.106796E-03   0.352629E+00   0.482818E+01
   0.229000E+04   0.872063E-04   0.107903E-03   0.352620E+00   0.482818E+01
   0.230000E+04   0.877392E-04   0.109026E-03   0.352626E+00   0.482818E+01
   0.231000E+04   0.882791E-04   0.110167E-03   0.352640E+00   0.482818E+01
   0.232000E+04   0.888263E-04   0.111325E-03   0.352641E+00   0.482818E+01
   0.233000E+04   0.893810E-04   0.112502E-03   0.352629E+00   0.482818E+01
   0.234000E+04   0.899432E-04   0.113696E-03   0.352621E+00   0.482818E+01
   0.235000E+04   0.905125E-04   0.114907E-03   0.352626E+00   0.482818E+01
   0.236000E+04   0.910886E-04   0.116133E-03   0.352640E+00   0.482818E+01
   0.237000E+04   0.916717E-04   0.117376E-03   0.352640E+00   0.482818E+01
   0.238000E+04   0.922620E-04   0.118635E-03   0.352628E+00   0.482818E+01
   0.239000E+04   0.928595E-04   0.119910E-03   0.352621E+00   0.482818E+01
   0.240000E+04   0.934637E-04   0.121200E-03   0.352627E+00   0.482818E+01
   0.241000E+04   0.940742E-04   0.122504E-03   0.352641E+00   0.482818E+01
   0.242000E+04   0.946912E-04   0.123822E-03   0.352641E+00   0.482818E+01
   0.243000E+04   0.953150E-04   0.125154E-03   0.352628E+00   0.482818E+01
   0.244000E+04   0.959454E-04   0.126501E-03   0.352621E+00   0.482818E+01
   0.245000E+04   0.965819E-04   0.127861E-03   0.352627E+00   0.482818E+01
   0.246000E+04   0.972243E-04   0.129232E-03   0.352641E+00   0.482818E+01
   0.247000E+04   0.978726E-04   0.130616E-03   0.352641E+00   0.482818E+01
   0.248000E+04   0.985271E-04   0.132013E-03   0.352628E+00   0.482818E+01
   0.249000E+04   0.991877E-04   0.133422E-03   0.352621E+00   0.482818E+01
   0.250000E+04   0.998538E-04   0.134842E-03   0.352627E+00   0.482818E+01
   0.251000E+04   0.100525E-03   0.136272E-03   0.352641E+00   0.482818E+01
   0.252000E+04   0.101202E-03   0.137714E-03   0.352641E+00   0.482818E+01
   0.253000E+04   0.101885E-03   0.139166E-03   0.352628E+00   0.482818E+01
   0.254000E+04   0.102573E-03   0.140630E-03   0.352621E+00   0.482818E+01
   0.255000E+04   0.103266E-03   0.142104E-03   0.352628E+00   0.482818E+01
   0.256000E+04   0.103964E-03   0.143587E-03   0.352642E+00   0.482818E+01
   0.257000E+04   0.104666E-03   0.145079E-03   0.352641E+00   0.482818E+01
   0.258000E+04   0.105374E-03   0.146583E-03   0.352628E+00   0.482818E+01
   0.259000E+04   0.106087E-03   0.148096E-03   0.352622E+00   0.482818E+01
   0.260000E+04   0.106805E-03   0.149619E-03   0.352628E+00   0.482818E+01
   0.261000E+04   0.107527E-03   0.151151E-03   0.352642E+00   0.482818E+01
   0.262000E+04   0.108254E-03   0.152692E-03   0.352641E+00   0.482818E+01
   0.263000E+04   0.108985E-03   0.154243E-03   0.352629E+00   0.482818E+01
   0.264000E+04   0.109721E-03   0.155805E-03   0.352622E+00   0.482818E+01
   0.265000E+04   0.110461E-03   0.157375E-03   0.352629E+00   0.482818E+01
   0.266000E+04   0.111206E-03   0.158955E-03   0.352643E+00   0.482818E+01
   0.267000E+04   0.111954E-03   0.160544E-03   0.352642E+00   0.482818E+01
   0.268000E+04   0.112708E-03   0.162143E-03   0.352629E+00   0.482818E+01
   0.269000E+04   0.113465E-03   0.163753E-03   0.352622E+00   0.482818E+01
   0.270000E+04   0.114227E-03   0.165372E-03   0.352629E+00   0.482818E+01
   0.271000E+04   0.114992E-03   0.167000E-03   0.352644E+00   0.482818E+01
   0.272000E+04   0.115762E-03   0.168639E-03   0.352643E+00   0.482818E+01
   0.273000E+04   0.116536E-03   0.170288E-03   0.352630E+00   0.482818E+01
   0.274000E+04   0.117314E-03   0.171948E-03   0.352624E+00   0.482818E+01
   0.275000E+04   0.118096E-03   0.173619E-03   0.352630E+00   0.482818E+01
   0.276000E+04   0.118882E-03   0.175299E-03   0.352644E+00   0.482818E+01
   0.277000E+04   0.119671E-03   0.176991E-03   0.352643E+00   0.482818E+01
   0.278000E+04   0.120466E-03   0.178694E-03   0.352631E+00   0.482818E+01
   0.279000E+04   0.121264E-03   0.180410E-03   0.352626E+00   0.482818E+01
   0.280000E+04   0.122066E-03   0.182137E-03   0.352633E+00   0.482818E+01
   0.281000E+04   0.122872E-03   0.183875E-03   0.352646E+00   0.482818E+01
   0.282000E+04   0.123682E-03   0.185625E-03   0.352645E+00   0.482818E+01
   0.283000E+04   0.124496E-03   0.187388E-03   0.352632E+00   0.482818E+01
   0.284000E+04   0.125315E-03   0.189164E-03   0.352627E+00   0.482818E+01
   0.285000E+04   0.126138E-03   0.190953E-03   0.352635E+00   0.482818E+01
   0.286000E+04   0.126964E-03   0.192755E-03   0.352649E+00   0.482818E+01
   0.287000E+04   0.127795E-03   0.194571E-03   0.352647E+00   0.482818E+01
   0.288000E+04   0.128630E-03   0.196400E-03   0.352634E+00   0.482818E+01
   0.289000E+04   0.129470E-03   0.198244E-03   0.352629E+00   0.482818E+01
   0.290000E+04   0.130314E-03   0.200102E-03   0.352637E+00   0.482818E+01
   0.291000E+04   0.131162E-03   0.201974E-03   0.352652E+00   0.482818E+01
   0.292000E+04   0.132014E-03   0.203861E-03   0.352650E+00   0.482818E+01
   0.293000E+04   0.132871E-03   0.205763E-03   0.352637E+00   0.482818E+01
   0.294000E+04   0.133733E-03   0.207680E-03   0.352631E+00   0.482818E+01
   0.295000E+04   0.134599E-03   0.209611E-03   0.352638E+00   0.482818E+01
   0.296000E+04   0.135469E-03   0.211557E-03   0.352652E+00   0.482818E+01
   0.297000E+04   0.136343E-03   0.213517E-03   0.352652E+00   0.482818E+01
   0.298000E+04   0.137222E-03   0.215492E-03   0.352641E+00   0.482818E+01
   0.299000E+04   0.138106E-03   0.217481E-03   0.352636E+00   0.482818E+01
   0.300000E+04   0.138993E-03   0.219484E-03   0.352643E+00   0.482818E+01
   0.301000E+04   0.139885E-03   0.221500E-03   0.352655E+00   0.482818E+01
   0.302000E+04   0.140781E-03   0.223527E-03   0.352652E+00   0.482818E+01
   0.303000E+04   0.141681E-03   0.225567E-03   0.352640E+00   0.482818E+01
   0.304000E+04   0.142584E-03   0.227617E-03   0.352636E+00   0.482818E+01
   0.305000E+04   0.143492E-03   0.229678E-03   0.352646E+00   0.482818E+01
   0.306000E+04   0.144402E-03   0.231746E-03   0.352661E+00   0.482818E+01
   0.307000E+04   0.145315E-03   0.233822E-03   0.352659E+00   0.482818E+01
   0.308000E+04   0.146232E-03   0.235905E-03   0.352644E+00   0.482818E+01
   0.309000E+04   0.147151E-03   0.237993E-03   0.352638E+00   0.482818E+01
   0.310000E+04   0.148073E-03   0.240084E-03   0.352645E+00   0.482818E+01
   0.311000E+04   0.148997E-03   0.242177E-03   0.352659E+00   0.482818E+01
   0.312000E+04   0.149922E-03   0.244270E-03   0.352660E+00   0.482818E+01
   0.313000E+04   0.150849E-03   0.246362E-03   0.352649E+00   0.482818E+01
   0.314000E+04   0.151776E-03   0.248452E-03   0.352644E+00   0.482818E+01
   0.315000E+04   0.152705E-03   0.250537E-03   0.352651E+00   0.482818E+01
   0.316000E+04   0.153633E-03   0.252615E-03   0.352663E+00   0.482818E+01
   0.317000E+04   0.154562E-03   0.254685E-03   0.352659E+00   0.482818E+01
   0.318000E+04   0.155489E-03   0.256745E-03   0.352646E+00   0.482818E+01
   0.319000E+04   0.156416E-03   0.258794E-03   0.352643E+00   0.482818E+01
   0.320000E+04   0.157342E-03   0.260829E-03   0.352652E+00   0.482818E+01
   0.321000E+04   0.158266E-03   0.262848E-03   0.352667E+00   0.482818E+01
   0.322000E+04   0.159187E-03   0.264850E-03   0.352665E+00   0.482818E+01
   0.323000E+04   0.160105E-03   0.266833E-03   0.352651E+00   0.482818E+01
   0.324000E+04   0.161021E-03   0.268796E-03   0.352644E+00   0.482818E+01
   0.325000E+04   0.161933E-03   0.270737E-03   0.352651E+00   0.482818E+01
   0.326000E+04   0.162842E-03   0.272654E-03   0.352665E+00   0.482818E+01
   0.327000E+04   0.163746E-03   0.274545E-03   0.352664E+00   0.482818E+01
   0.328000E+04   0.164645E-03   0.276410E-03   0.352652E+00   0.482818E+01
   0.329000E+04   0.165539E-03   0.278247E-03   0.352648E+00   0.482818E+01
   0.330000E+04   0.166428E-03   0.280055E-03   0.352655E+00   0.482818E+01
   0.331000E+04   0.167311E-03   0.281833E-03   0.352668E+00   0.482818E+01
   0.332000E+04   0.168188E-03   0.283581E-03   0.352665E+00   0.482818E+01
   0.333000E+04   0.169059E-03   0.285297E-03   0.352652E+00   0.482818E+01
   0.334000E+04   0.169924E-03   0.286983E-03   0.352646E+00   0.482818E+01
   0.335000E+04   0.170783E-03   0.288637E-03   0.352654E+00   0.482818E+01
   0.336000E+04   0.171636E-03   0.290261E-03   0.352668E+00   0.482818E+01
   0.337000E+04   0.172482E-03   0.291852E-03   0.352667E+00   0.482818E+01
   0.338000E+04   0.173321E-03   0.293413E-03   0.352654E+00   0.482818E+01
   0.339000E+04   0.174154E-03   0.294944E-03   0.352649E+00   0.482818E+01
   0.340000E+04   0.174980E-03   0.296446E-03   0.352656E+00   0.482818E+01
   0.341000E+04   0.175802E-03   0.297921E-03   0.352669E+00   0.482818E+01
   0.342000E+04   0.176616E-03   0.299369E-03   0.352665E+00   0.482818E+01
   0.343000E+04   0.177426E-03   0.300791E-03   0.352652E+00   0.482818E+01
   0.344000E+04   0.178229E-03   0.302188E-03   0.352647E+00   0.482818E+01
   0.345000E+04   0.179028E-03   0.303562E-03   0.352656E+00   0.482818E+01
   0.346000E+04   0.179822E-03   0.304915E-03   0.352670E+00   0.482818E+01
   0.347000E+04   0.180610E-03   0.306246E-03   0.352669E+00   0.482818E+01
   0.348000E+04   0.181394E-03   0.307558E-03   0.352655E+00   0.482818E+01
   0.349000E+04   0.182174E-03   0.308853E-03   0.352648E+00   0.482818E+01
   0.350000E+04   0.182951E-03   0.310131E-03   0.352653E+00   0.482818E+01
   0.351000E+04   0.183724E-03   0.311393E-03   0.352667E+00   0.482818E+01
   0.352000E+04   0.184494E-03   0.312640E-03   0.352665E+00   0.482818E+01
   0.353000E+04   0.185259E-03   0.313872E-03   0.352654E+00   0.482818E+01
   0.354000E+04   0.186022E-03   0.315091E-03   0.352650E+00   0.482818E+01
   0.355000E+04   0.186781E-03   0.316297E-03   0.352657E+00   0.482818E+01
   0.356000E+04   0.187538E-03   0.317491E-03   0.352670E+00   0.482818E+01
   0.357000E+04   0.188292E-03   0.318671E-03   0.352665E+00   0.482818E+01
   0.358000E+04   0.189043E-03   0.319839E-03   0.352650E+00   0.482818E+01
   0.359000E+04   0.189791E-03   0.320994E-03   0.352644E+00   0.482818E+01
   0.360000E+04   0.190537E-03   0.322135E-03   0.352653E+00   0.482818E+01
   0.361000E+04   0.191279E-03   0.323263E-03   0.352669E+00   0.482818E+01
   0.362000E+04   0.192018E-03   0.324376E-03   0.352668E+00   0.482818E+01
   0.363000E+04   0.192752E-03   0.325472E-03   0.352655E+00   0.482818E+01
   0.364000E+04   0.193483E-03   0.326551E-03   0.352647E+00   0.482818E+01
   0.365000E+04   0.194211E-03   0.327613E-03   0.352652E+00   0.482818E+01
   0.366000E+04   0.194935E-03   0.328656E-03   0.352663E+00   0.482818E+01
   0.367000E+04   0.195654E-03   0.329676E-03   0.352662E+00   0.482818E+01
   0.368000E+04   0.196367E-03   0.330672E-03   0.352650E+00   0.482818E+01
   0.369000E+04   0.197074E-03   0.331642E-03   0.352647E+00   0.482818E+01
   0.370000E+04   0.197776E-03   0.332585E-03   0.352655E+00   0.482818E+01
   0.371000E+04   0.198471E-03   0.333498E-03   0.352668E+00   0.482818E+01
   0.372000E+04   0.199159E-03   0.334379E-03   0.352664E+00   0.482818E+01
   0.373000E+04   0.199838E-03   0.335224E-03   0.352648E+00   0.482818E+01
   0.374000E+04   0.200510E-03   0.336030E-03   0.352640E+00   0.482818E+01
   0.375000E+04   0.201173E-03   0.336797E-03   0.352647E+00   0.482818E+01
   0.376000E+04   0.201826E-03   0.337522E-03   0.352664E+00   0.482818E+01
   0.377000E+04   0.202468E-03   0.338199E-03   0.352665E+00   0.482818E+01
   0.378000E+04   0.203099E-03   0.338826E-03   0.352652E+00   0.482818E+01
   0.379000E+04   0.203717E-03   0.339400E-03   0.352644E+00   0.482818E+01
   0.380000E+04   0.204324E-03   0.339921E-03   0.352649E+00   0.482818E+01
   0.381000E+04   0.204918E-03   0.340384E-03   0.352660E+00   0.482818E+01
   0.382000E+04   0.205498E-03   0.340787E-03   0.352657E+00   0.482818E+01
   0.383000E+04   0.206062E-03   0.341124E-03   0.352645E+00   0.482818E+01
   0.384000E+04   0.206611E-03   0.341393E-03   0.352641E+00   0.482818E+01
   0.385000E+04   0.207145E-03   0.341595E-03   0.352649E+00   0.482818E+01
   0.386000E+04   0.207662E-03   0.341725E-03   0.352664E+00   0.482818E+01
   0.387000E+04   0.208161E-03   0.341781E-03   0.352661E+00   0.482818E+01
   0.388000E+04   0.208641E-03   0.341759E-03   0.352646E+00   0.482818E+01
   0.389000E+04   0.209103E-03   0.341659E-03   0.352636E+00   0.482818E+01
   0.390000E+04   0.209547E-03   0.341478E-03   0.352642E+00   0.482818E+01
   0.391000E+04   0.209971E-03   0.341216E-03   0.352657E+00   0.482818E+01
   0.392000E+04   0.210375E-03   0.340870E-03   0.352659E+00   0.482818E+01
   0.393000E+04   0.210757E-03   0.340436E-03   0.352647E+00   0.482818E+01