title="breakthrough data set at     5 wells"
variables="time(days)","cavg","cpk","upk","zswi"
zone i=     1295
   0.100000E+02   0.251182E-09   0.444725E-09   0.455382E+00   0.484805E+01
   0.200000E+02   0.630906E-09   0.110027E-08   0.370743E+00   0.482811E+01
   0.300000E+02   0.129990E-08   0.225799E-08   0.370106E+00   0.482811E+01
   0.400000E+02   0.240533E-08   0.416114E-08   0.369839E+00   0.482811E+01
   0.500000E+02   0.414743E-08   0.714292E-08   0.369581E+00   0.482811E+01
   0.600000E+02   0.679244E-08   0.116415E-07   0.369339E+00   0.482811E+01
   0.700000E+02   0.106872E-07   0.182215E-07   0.369091E+00   0.482811E+01
   0.800000E+02   0.162665E-07   0.275820E-07   0.368878E+00   0.482811E+01
   0.900000E+02   0.240632E-07   0.405689E-07   0.368680E+00   0.482811E+01
   0.100000E+03   0.347103E-07   0.581732E-07   0.368497E+00   0.482811E+01
   0.110000E+03   0.489389E-07   0.815226E-07   0.368328E+00   0.482811E+01
   0.120000E+03   0.675122E-07   0.111763E-06   0.368341E+00   0.482811E+01
   0.130000E+03   0.913613E-07   0.150294E-06   0.368172E+00   0.482811E+01
   0.140000E+03   0.121440E-06   0.198509E-06   0.368018E+00   0.482811E+01
   0.150000E+03   0.158743E-06   0.257826E-06   0.367877E+00   0.482811E+01
   0.160000E+03   0.204372E-06   0.329802E-06   0.367632E+00   0.482811E+01
   0.170000E+03   0.259275E-06   0.415689E-06   0.367531E+00   0.482811E+01
   0.180000E+03   0.324447E-06   0.516780E-06   0.367437E+00   0.482811E+01
   0.190000E+03   0.400729E-06   0.634077E-06   0.367444E+00   0.482811E+01
   0.200000E+03   0.489113E-06   0.768811E-06   0.367349E+00   0.482811E+01
   0.210000E+03   0.590427E-06   0.921912E-06   0.367262E+00   0.482811E+01
   0.220000E+03   0.705413E-06   0.109415E-05   0.367181E+00   0.482811E+01
   0.230000E+03   0.834717E-06   0.128612E-05   0.367107E+00   0.482811E+01
   0.240000E+03   0.978879E-06   0.149824E-05   0.367038E+00   0.482811E+01
   0.250000E+03   0.113833E-05   0.173076E-05   0.366973E+00   0.482811E+01
   0.260000E+03   0.131339E-05   0.198376E-05   0.366913E+00   0.482811E+01
   0.270000E+03   0.150426E-05   0.225713E-05   0.366857E+00   0.482811E+01
   0.280000E+03   0.171103E-05   0.255061E-05   0.366804E+00   0.482811E+01
   0.290000E+03   0.193368E-05   0.286379E-05   0.366755E+00   0.482811E+01
   0.300000E+03   0.217207E-05   0.319612E-05   0.366709E+00   0.482811E+01
   0.310000E+03   0.242597E-05   0.354692E-05   0.366666E+00   0.482811E+01
   0.320000E+03   0.269502E-05   0.391537E-05   0.366625E+00   0.482811E+01
   0.330000E+03   0.297879E-05   0.430055E-05   0.366587E+00   0.482811E+01
   0.340000E+03   0.327672E-05   0.470143E-05   0.366551E+00   0.482811E+01
   0.350000E+03   0.358818E-05   0.511689E-05   0.366517E+00   0.482811E+01
   0.360000E+03   0.391246E-05   0.554572E-05   0.366486E+00   0.482811E+01
   0.370000E+03   0.424873E-05   0.598665E-05   0.366456E+00   0.482811E+01
   0.380000E+03   0.459611E-05   0.643830E-05   0.366428E+00   0.482811E+01
   0.390000E+03   0.495364E-05   0.689926E-05   0.366402E+00   0.482811E+01
   0.400000E+03   0.532029E-05   0.736806E-05   0.366377E+00   0.482811E+01
   0.410000E+03   0.569504E-05   0.784328E-05   0.366333E+00   0.482811E+01
   0.420000E+03   0.607664E-05   0.832319E-05   0.366313E+00   0.482811E+01
   0.430000E+03   0.646380E-05   0.880612E-05   0.366314E+00   0.482811E+01
   0.440000E+03   0.685540E-05   0.929062E-05   0.366295E+00   0.482811E+01
   0.450000E+03   0.725017E-05   0.977506E-05   0.366278E+00   0.482811E+01
   0.460000E+03   0.764679E-05   0.102578E-04   0.366261E+00   0.482811E+01
   0.470000E+03   0.804395E-05   0.107373E-04   0.366246E+00   0.482811E+01
   0.480000E+03   0.844031E-05   0.112118E-04   0.366231E+00   0.482811E+01
   0.490000E+03   0.883450E-05   0.116799E-04   0.366218E+00   0.482811E+01
   0.500000E+03   0.922518E-05   0.121398E-04   0.366206E+00   0.482811E+01
   0.510000E+03   0.961100E-05   0.125901E-04   0.366194E+00   0.482811E+01
   0.520000E+03   0.999064E-05   0.130293E-04   0.366184E+00   0.482811E+01
   0.530000E+03   0.103628E-04   0.134558E-04   0.366174E+00   0.482811E+01
   0.540000E+03   0.107261E-04   0.138684E-04   0.366165E+00   0.482811E+01
   0.550000E+03   0.110795E-04   0.142656E-04   0.366157E+00   0.482811E+01
   0.560000E+03   0.114215E-04   0.146460E-04   0.366150E+00   0.482811E+01
   0.570000E+03   0.117509E-04   0.150084E-04   0.366143E+00   0.482811E+01
   0.580000E+03   0.120667E-04   0.153516E-04   0.366138E+00   0.482811E+01
   0.590000E+03   0.123674E-04   0.156741E-04   0.366132E+00   0.482811E+01
   0.600000E+03   0.126520E-04   0.159750E-04   0.366128E+00   0.482811E+01
   0.610000E+03   0.129191E-04   0.162528E-04   0.366124E+00   0.482811E+01
   0.620000E+03   0.131675E-04   0.165063E-04   0.366120E+00   0.482811E+01
   0.630000E+03   0.133959E-04   0.167344E-04   0.366117E+00   0.482811E+01
   0.640000E+03   0.136031E-04   0.169357E-04   0.366114E+00   0.482811E+01
   0.650000E+03   0.137878E-04   0.171091E-04   0.366112E+00   0.482811E+01
   0.660000E+03   0.139486E-04   0.172532E-04   0.366110E+00   0.482811E+01
   0.670000E+03   0.140843E-04   0.173669E-04   0.366109E+00   0.482811E+01
   0.680000E+03   0.141935E-04   0.174490E-04   0.366108E+00   0.482811E+01
   0.690000E+03   0.142748E-04   0.174982E-04   0.366108E+00   0.482811E+01
   0.700000E+03   0.143270E-04   0.175135E-04   0.366108E+00   0.482811E+01
   0.710000E+03   0.143489E-04   0.174937E-04   0.366108E+00   0.482811E+01
   0.720000E+03   0.143391E-04   0.174378E-04   0.366109E+00   0.482811E+01
   0.730000E+03   0.142966E-04   0.173450E-04   0.366110E+00   0.482811E+01
   0.740000E+03   0.142202E-04   0.172144E-04   0.366112E+00   0.482811E+01
   0.750000E+03   0.141090E-04   0.170454E-04   0.366113E+00   0.482811E+01
   0.760000E+03   0.139621E-04   0.168375E-04   0.366115E+00   0.482811E+01
   0.770000E+03   0.137789E-04   0.165903E-04   0.366117E+00   0.482811E+01
   0.780000E+03   0.135587E-04   0.163037E-04   0.366119E+00   0.482811E+01
   0.790000E+03   0.133011E-04   0.159776E-04   0.366121E+00   0.482811E+01
   0.800000E+03   0.130059E-04   0.156122E-04   0.366124E+00   0.482811E+01
   0.810000E+03   0.126731E-04   0.152079E-04   0.366126E+00   0.482811E+01
   0.820000E+03   0.123026E-04   0.147651E-04   0.366129E+00   0.482811E+01
   0.830000E+03   0.118948E-04   0.142848E-04   0.366132E+00   0.482811E+01
   0.840000E+03   0.114501E-04   0.137676E-04   0.366135E+00   0.482811E+01
   0.850000E+03   0.109690E-04   0.132146E-04   0.366137E+00   0.482811E+01
   0.860000E+03   0.104522E-04   0.126272E-04   0.366140E+00   0.482811E+01
   0.870000E+03   0.990062E-05   0.120065E-04   0.366143E+00   0.482811E+01
   0.880000E+03   0.931508E-05   0.113539E-04   0.366147E+00   0.482811E+01
   0.890000E+03   0.869666E-05   0.109786E-04   0.366150E+00   0.482811E+01
   0.900000E+03   0.804645E-05   0.106153E-04   0.366153E+00   0.482811E+01
   0.910000E+03   0.736562E-05   0.102347E-04   0.366157E+00   0.482811E+01
   0.920000E+03   0.665536E-05   0.983785E-05   0.366160E+00   0.482811E+01
   0.930000E+03   0.591693E-05   0.942559E-05   0.366164E+00   0.482811E+01
   0.940000E+03   0.515157E-05   0.899885E-05   0.366167E+00   0.482811E+01
   0.950000E+03   0.436055E-05   0.855859E-05   0.366171E+00   0.482811E+01
   0.960000E+03   0.354512E-05   0.810575E-05   0.366175E+00   0.482811E+01
   0.970000E+03   0.270655E-05   0.764128E-05   0.366179E+00   0.482811E+01
   0.980000E+03   0.184607E-05   0.716614E-05   0.366183E+00   0.482811E+01
   0.990000E+03   0.964948E-06   0.668125E-05   0.366188E+00   0.482811E+01
   0.100000E+04   0.644120E-07   0.618756E-05   0.366192E+00   0.482811E+01
   0.101000E+04  -0.854285E-06   0.568597E-05   0.366196E+00   0.482811E+01
   0.102000E+04  -0.178988E-05   0.517736E-05   0.366201E+00   0.482811E+01
   0.103000E+04  -0.274109E-05   0.466262E-05   0.366205E+00   0.482811E+01
   0.104000E+04  -0.370662E-05   0.414257E-05   0.366210E+00   0.482811E+01
   0.105000E+04  -0.468512E-05   0.361804E-05   0.366215E+00   0.482811E+01
   0.106000E+04  -0.567524E-05   0.308979E-05   0.366220E+00   0.482811E+01
   0.107000E+04  -0.667560E-05   0.255860E-05   0.366225E+00   0.482811E+01
   0.108000E+04  -0.768479E-05   0.202516E-05   0.366229E+00   0.482811E+01
   0.109000E+04  -0.870138E-05   0.149016E-05   0.366234E+00   0.482811E+01
   0.110000E+04  -0.972394E-05   0.954271E-06   0.366239E+00   0.482811E+01
   0.111000E+04  -0.107511E-04   0.418097E-06   0.366244E+00   0.482811E+01
   0.112000E+04  -0.117813E-04  -0.117765E-06   0.366249E+00   0.482811E+01
   0.113000E+04  -0.128132E-04  -0.652750E-06   0.366254E+00   0.482811E+01
   0.114000E+04  -0.138455E-04  -0.118632E-05   0.366259E+00   0.482811E+01
   0.115000E+04  -0.148768E-04  -0.171797E-05   0.366264E+00   0.482811E+01
   0.116000E+04  -0.159057E-04  -0.224720E-05   0.366269E+00   0.482811E+01
   0.117000E+04  -0.169310E-04  -0.277356E-05   0.366274E+00   0.482811E+01
   0.118000E+04  -0.179513E-04  -0.329658E-05   0.366279E+00   0.482811E+01
   0.119000E+04  -0.189654E-04  -0.381586E-05   0.366283E+00   0.482811E+01
   0.120000E+04  -0.199721E-04  -0.433096E-05   0.366288E+00   0.482811E+01
   0.121000E+04  -0.209703E-04  -0.484149E-05   0.366293E+00   0.482811E+01
   0.122000E+04  -0.219588E-04  -0.534706E-05   0.366297E+00   0.482811E+01
   0.123000E+04  -0.229365E-04  -0.584730E-05   0.366302E+00   0.482811E+01
   0.124000E+04  -0.239023E-04  -0.634184E-05   0.366306E+00   0.482811E+01
   0.125000E+04  -0.248554E-04  -0.683031E-05   0.366311E+00   0.482811E+01
   0.126000E+04  -0.257948E-04  -0.731238E-05   0.366315E+00   0.482811E+01
   0.127000E+04  -0.267196E-04  -0.778772E-05   0.366320E+00   0.482811E+01
   0.128000E+04  -0.276291E-04  -0.825601E-05   0.366324E+00   0.482811E+01
   0.129000E+04  -0.285226E-04  -0.871697E-05   0.366328E+00   0.482811E+01
   0.130000E+04  -0.293994E-04  -0.917033E-05   0.366333E+00   0.482811E+01
   0.131000E+04  -0.302592E-04  -0.961586E-05   0.366337E+00   0.482811E+01
   0.132000E+04  -0.311013E-04  -0.100533E-04   0.366342E+00   0.482811E+01
   0.133000E+04  -0.319253E-04  -0.104826E-04   0.366346E+00   0.482811E+01
   0.134000E+04  -0.327310E-04  -0.109035E-04   0.366350E+00   0.482811E+01
   0.135000E+04  -0.335181E-04  -0.113158E-04   0.366355E+00   0.482811E+01
   0.136000E+04  -0.342862E-04  -0.117195E-04   0.366359E+00   0.482811E+01
   0.137000E+04  -0.350352E-04  -0.121144E-04   0.366364E+00   0.482811E+01
   0.138000E+04  -0.357649E-04  -0.125005E-04   0.366368E+00   0.482811E+01
   0.139000E+04  -0.364751E-04  -0.128777E-04   0.366372E+00   0.482811E+01
   0.140000E+04  -0.371655E-04  -0.132460E-04   0.366376E+00   0.482811E+01
   0.141000E+04  -0.378362E-04  -0.136054E-04   0.366381E+00   0.482811E+01
   0.142000E+04  -0.384868E-04  -0.139557E-04   0.366385E+00   0.482811E+01
   0.143000E+04  -0.391171E-04  -0.142970E-04   0.366389E+00   0.482811E+01
   0.144000E+04  -0.397271E-04  -0.146293E-04   0.366393E+00   0.482811E+01
   0.145000E+04  -0.403165E-04  -0.149525E-04   0.366397E+00   0.482811E+01
   0.146000E+04  -0.408852E-04  -0.152667E-04   0.366402E+00   0.482811E+01
   0.147000E+04  -0.414329E-04  -0.155719E-04   0.366406E+00   0.482811E+01
   0.148000E+04  -0.419596E-04  -0.158681E-04   0.366410E+00   0.482811E+01
   0.149000E+04  -0.424650E-04  -0.161553E-04   0.366414E+00   0.482811E+01
   0.150000E+04  -0.429492E-04  -0.164335E-04   0.366418E+00   0.482811E+01
   0.151000E+04  -0.434118E-04  -0.167028E-04   0.366422E+00   0.482811E+01
   0.152000E+04  -0.438530E-04  -0.169632E-04   0.366426E+00   0.482811E+01
   0.153000E+04  -0.442726E-04  -0.172146E-04   0.366430E+00   0.482811E+01
   0.154000E+04  -0.446706E-04  -0.174572E-04   0.366434E+00   0.482811E+01
   0.155000E+04  -0.450471E-04  -0.176908E-04   0.366439E+00   0.482811E+01
   0.156000E+04  -0.454021E-04  -0.179157E-04   0.366443E+00   0.482811E+01
   0.157000E+04  -0.457357E-04  -0.181316E-04   0.366446E+00   0.482811E+01
   0.158000E+04  -0.460481E-04  -0.183388E-04   0.366450E+00   0.482811E+01
   0.159000E+04  -0.463394E-04  -0.185371E-04   0.366454E+00   0.482811E+01
   0.160000E+04  -0.466098E-04  -0.187267E-04   0.366458E+00   0.482811E+01
   0.161000E+04  -0.468595E-04  -0.189075E-04   0.366462E+00   0.482811E+01
   0.162000E+04  -0.470888E-04  -0.190796E-04   0.366466E+00   0.482811E+01
   0.163000E+04  -0.472980E-04  -0.192431E-04   0.366470E+00   0.482811E+01
   0.164000E+04  -0.474873E-04  -0.193980E-04   0.366473E+00   0.482811E+01
   0.165000E+04  -0.476570E-04  -0.195443E-04   0.366477E+00   0.482811E+01
   0.166000E+04  -0.478075E-04  -0.196823E-04   0.366481E+00   0.482811E+01
   0.167000E+04  -0.479390E-04  -0.198119E-04   0.366484E+00   0.482811E+01
   0.168000E+04  -0.480520E-04  -0.199334E-04   0.366488E+00   0.482811E+01
   0.169000E+04  -0.481466E-04  -0.200467E-04   0.366491E+00   0.482811E+01
   0.170000E+04  -0.482232E-04  -0.201520E-04   0.366495E+00   0.482811E+01
   0.171000E+04  -0.482822E-04  -0.202495E-04   0.366499E+00   0.482811E+01
   0.172000E+04  -0.483238E-04  -0.203392E-04   0.366502E+00   0.482811E+01
   0.173000E+04  -0.483484E-04  -0.204214E-04   0.366505E+00   0.482811E+01
   0.174000E+04  -0.483562E-04  -0.204962E-04   0.366509E+00   0.482811E+01
   0.175000E+04  -0.483475E-04  -0.205636E-04   0.366512E+00   0.482811E+01
   0.176000E+04  -0.483227E-04  -0.206238E-04   0.366516E+00   0.482811E+01
   0.177000E+04  -0.482820E-04  -0.206771E-04   0.366519E+00   0.482811E+01
   0.178000E+04  -0.482257E-04  -0.207234E-04   0.366522E+00   0.482811E+01
   0.179000E+04  -0.481541E-04  -0.207630E-04   0.366526E+00   0.482811E+01
   0.180000E+04  -0.480675E-04  -0.207960E-04   0.366529E+00   0.482811E+01
   0.181000E+04  -0.479660E-04  -0.208225E-04   0.366532E+00   0.482811E+01
   0.182000E+04  -0.478500E-04  -0.208427E-04   0.366535E+00   0.482811E+01
   0.183000E+04  -0.477196E-04  -0.208566E-04   0.366539E+00   0.482811E+01
   0.184000E+04  -0.475751E-04  -0.208645E-04   0.366542E+00   0.482811E+01
   0.185000E+04  -0.474168E-04  -0.208664E-04   0.366545E+00   0.482811E+01
   0.186000E+04  -0.472448E-04  -0.208624E-04   0.366548E+00   0.482811E+01
   0.187000E+04  -0.470592E-04  -0.208528E-04   0.366551E+00   0.482811E+01
   0.188000E+04  -0.468603E-04  -0.208375E-04   0.366554E+00   0.482811E+01
   0.189000E+04  -0.466483E-04  -0.208167E-04   0.366557E+00   0.482811E+01
   0.190000E+04  -0.464232E-04  -0.207906E-04   0.366561E+00   0.482811E+01
   0.191000E+04  -0.461851E-04  -0.207592E-04   0.366564E+00   0.482811E+01
   0.192000E+04  -0.459343E-04  -0.207226E-04   0.366567E+00   0.482811E+01
   0.193000E+04  -0.456708E-04  -0.206811E-04   0.366570E+00   0.482811E+01
   0.194000E+04  -0.453947E-04  -0.206345E-04   0.366572E+00   0.482811E+01
   0.195000E+04  -0.451060E-04  -0.205832E-04   0.366575E+00   0.482811E+01
   0.196000E+04  -0.448049E-04  -0.205271E-04   0.366578E+00   0.482811E+01
   0.197000E+04  -0.444913E-04  -0.204664E-04   0.366581E+00   0.482811E+01
   0.198000E+04  -0.441654E-04  -0.204011E-04   0.366584E+00   0.482811E+01
   0.199000E+04  -0.438271E-04  -0.203314E-04   0.366587E+00   0.482811E+01
   0.200000E+04  -0.434765E-04  -0.202574E-04   0.366590E+00   0.482811E+01
   0.201000E+04  -0.431136E-04  -0.201791E-04   0.366592E+00   0.482811E+01
   0.202000E+04  -0.427385E-04  -0.200966E-04   0.366595E+00   0.482811E+01
   0.203000E+04  -0.423511E-04  -0.200100E-04   0.366598E+00   0.482811E+01
   0.204000E+04  -0.419514E-04  -0.199194E-04   0.366601E+00   0.482811E+01
   0.205000E+04  -0.415395E-04  -0.198249E-04   0.366603E+00   0.482811E+01
   0.206000E+04  -0.411154E-04  -0.197266E-04   0.366606E+00   0.482811E+01
   0.207000E+04  -0.406790E-04  -0.196244E-04   0.366609E+00   0.482811E+01
   0.208000E+04  -0.402304E-04  -0.195186E-04   0.366611E+00   0.482811E+01
   0.209000E+04  -0.397697E-04  -0.194091E-04   0.366614E+00   0.482811E+01
   0.210000E+04  -0.392967E-04  -0.192961E-04   0.366616E+00   0.482811E+01
   0.211000E+04  -0.388117E-04  -0.191796E-04   0.366619E+00   0.482811E+01
   0.212000E+04  -0.383145E-04  -0.190597E-04   0.366621E+00   0.482811E+01
   0.213000E+04  -0.378052E-04  -0.189364E-04   0.366624E+00   0.482811E+01
   0.214000E+04  -0.372839E-04  -0.188099E-04   0.366626E+00   0.482811E+01
   0.215000E+04  -0.367507E-04  -0.186801E-04   0.366629E+00   0.482811E+01
   0.216000E+04  -0.362057E-04  -0.185472E-04   0.366631E+00   0.482811E+01
   0.217000E+04  -0.356489E-04  -0.184111E-04   0.366633E+00   0.482811E+01
   0.218000E+04  -0.350804E-04  -0.182721E-04   0.366636E+00   0.482811E+01
   0.219000E+04  -0.345004E-04  -0.181300E-04   0.366638E+00   0.482811E+01
   0.220000E+04  -0.339090E-04  -0.179851E-04   0.366641E+00   0.482811E+01
   0.221000E+04  -0.333065E-04  -0.178373E-04   0.366643E+00   0.482811E+01
   0.222000E+04  -0.326930E-04  -0.176867E-04   0.366645E+00   0.482811E+01
   0.223000E+04  -0.320686E-04  -0.175333E-04   0.366647E+00   0.482811E+01
   0.224000E+04  -0.314338E-04  -0.173773E-04   0.366650E+00   0.482811E+01
   0.225000E+04  -0.307886E-04  -0.172187E-04   0.366652E+00   0.482811E+01
   0.226000E+04  -0.301335E-04  -0.170574E-04   0.366654E+00   0.482811E+01
   0.227000E+04  -0.294687E-04  -0.168937E-04   0.366656E+00   0.482811E+01
   0.228000E+04  -0.287946E-04  -0.167275E-04   0.366658E+00   0.482811E+01
   0.229000E+04  -0.281115E-04  -0.165588E-04   0.366660E+00   0.482811E+01
   0.230000E+04  -0.274198E-04  -0.163878E-04   0.366662E+00   0.482811E+01
   0.231000E+04  -0.267200E-04  -0.162145E-04   0.366664E+00   0.482811E+01
   0.232000E+04  -0.260124E-04  -0.160389E-04   0.366666E+00   0.482811E+01
   0.233000E+04  -0.252975E-04  -0.158611E-04   0.366668E+00   0.482811E+01
   0.234000E+04  -0.245757E-04  -0.156811E-04   0.366670E+00   0.482811E+01
   0.235000E+04  -0.238476E-04  -0.153127E-04   0.366672E+00   0.482811E+01
   0.236000E+04  -0.231135E-04  -0.138775E-04   0.366674E+00   0.482811E+01
   0.237000E+04  -0.223741E-04  -0.124308E-04   0.366676E+00   0.482811E+01
   0.238000E+04  -0.216296E-04  -0.109739E-04   0.366678E+00   0.482811E+01
   0.239000E+04  -0.208807E-04  -0.950798E-05   0.366680E+00   0.482811E+01
   0.240000E+04  -0.201277E-04  -0.803440E-05   0.366682E+00   0.482811E+01
   0.241000E+04  -0.193711E-04  -0.655438E-05   0.366684E+00   0.482811E+01
   0.242000E+04  -0.186113E-04  -0.506914E-05   0.366686E+00   0.482811E+01
   0.243000E+04  -0.178488E-04  -0.357989E-05   0.366688E+00   0.482811E+01
   0.244000E+04  -0.170839E-04  -0.208778E-05   0.366690E+00   0.482811E+01
   0.245000E+04  -0.163169E-04  -0.593920E-06   0.366692E+00   0.482811E+01
   0.246000E+04  -0.155482E-04   0.900644E-06   0.366693E+00   0.482811E+01
   0.247000E+04  -0.147781E-04   0.239492E-05   0.366695E+00   0.482811E+01
   0.248000E+04  -0.140069E-04   0.388798E-05   0.366697E+00   0.482811E+01
   0.249000E+04  -0.132348E-04   0.537896E-05   0.366699E+00   0.482811E+01
   0.250000E+04  -0.124621E-04   0.686708E-05   0.366701E+00   0.482811E+01
   0.251000E+04  -0.116890E-04   0.835162E-05   0.366702E+00   0.482811E+01
   0.252000E+04  -0.109157E-04   0.983191E-05   0.366704E+00   0.482811E+01
   0.253000E+04  -0.101423E-04   0.113074E-04   0.366706E+00   0.482811E+01
   0.254000E+04  -0.936907E-05   0.127775E-04   0.366708E+00   0.482811E+01
   0.255000E+04  -0.859613E-05   0.142417E-04   0.366709E+00   0.482811E+01
   0.256000E+04  -0.782364E-05   0.156997E-04   0.366711E+00   0.482811E+01
   0.257000E+04  -0.705174E-05   0.171510E-04   0.366713E+00   0.482811E+01
   0.258000E+04  -0.628057E-05   0.185953E-04   0.366714E+00   0.482811E+01
   0.259000E+04  -0.551027E-05   0.200324E-04   0.366716E+00   0.482811E+01
   0.260000E+04  -0.474098E-05   0.214619E-04   0.366718E+00   0.482811E+01
   0.261000E+04  -0.397283E-05   0.228837E-04   0.366720E+00   0.482811E+01
   0.262000E+04  -0.320595E-05   0.242975E-04   0.366721E+00   0.482811E+01
   0.263000E+04  -0.244049E-05   0.257031E-04   0.366723E+00   0.482811E+01
   0.264000E+04  -0.167658E-05   0.271004E-04   0.366724E+00   0.482811E+01
   0.265000E+04  -0.914347E-06   0.284894E-04   0.366726E+00   0.482811E+01
   0.266000E+04  -0.153920E-06   0.298697E-04   0.366728E+00   0.482811E+01
   0.267000E+04   0.604577E-06   0.312415E-04   0.366729E+00   0.482811E+01
   0.268000E+04   0.136102E-05   0.326045E-04   0.366731E+00   0.482811E+01
   0.269000E+04   0.211531E-05   0.339588E-04   0.366733E+00   0.482811E+01
   0.270000E+04   0.286733E-05   0.353044E-04   0.366734E+00   0.482811E+01
   0.271000E+04   0.361700E-05   0.366412E-04   0.366736E+00   0.482811E+01
   0.272000E+04   0.436424E-05   0.379692E-04   0.366737E+00   0.482811E+01
   0.273000E+04   0.510898E-05   0.392886E-04   0.366739E+00   0.482811E+01
   0.274000E+04   0.585116E-05   0.405993E-04   0.366740E+00   0.482811E+01
   0.275000E+04   0.659074E-05   0.419016E-04   0.366742E+00   0.482811E+01
   0.276000E+04   0.732769E-05   0.431954E-04   0.366743E+00   0.482811E+01
   0.277000E+04   0.806200E-05   0.444811E-04   0.366745E+00   0.482811E+01
   0.278000E+04   0.879366E-05   0.457587E-04   0.366746E+00   0.482811E+01
   0.279000E+04   0.952267E-05   0.470284E-04   0.366748E+00   0.482811E+01
   0.280000E+04   0.102491E-04   0.482905E-04   0.366749E+00   0.482811E+01
   0.281000E+04   0.109729E-04   0.495452E-04   0.366751E+00   0.482811E+01
   0.282000E+04   0.116941E-04   0.507927E-04   0.366752E+00   0.482811E+01
   0.283000E+04   0.124129E-04   0.520333E-04   0.366754E+00   0.482811E+01
   0.284000E+04   0.131291E-04   0.532673E-04   0.366755E+00   0.482811E+01
   0.285000E+04   0.138430E-04   0.544949E-04   0.366757E+00   0.482811E+01
   0.286000E+04   0.145546E-04   0.557164E-04   0.366758E+00   0.482811E+01
   0.287000E+04   0.152638E-04   0.569321E-04   0.366759E+00   0.482811E+01
   0.288000E+04   0.159709E-04   0.581424E-04   0.366761E+00   0.482811E+01
   0.289000E+04   0.166759E-04   0.593473E-04   0.366762E+00   0.482811E+01
   0.290000E+04   0.173787E-04   0.605473E-04   0.366764E+00   0.482811E+01
   0.291000E+04   0.180796E-04   0.617426E-04   0.366765E+00   0.482811E+01
   0.292000E+04   0.187786E-04   0.629335E-04   0.366766E+00   0.482811E+01
   0.293000E+04   0.194757E-04   0.641201E-04   0.366768E+00   0.482811E+01
   0.294000E+04   0.201710E-04   0.653028E-04   0.366769E+00   0.482811E+01
   0.295000E+04   0.208646E-04   0.664818E-04   0.366771E+00   0.482811E+01
   0.296000E+04   0.215565E-04   0.676572E-04   0.366772E+00   0.482811E+01
   0.297000E+04   0.222467E-04   0.688293E-04   0.366773E+00   0.482811E+01
   0.298000E+04   0.229355E-04   0.699982E-04   0.366775E+00   0.482811E+01
   0.299000E+04   0.236227E-04   0.711642E-04   0.366776E+00   0.482811E+01
   0.300000E+04   0.243084E-04   0.723273E-04   0.366777E+00   0.482811E+01
   0.301000E+04   0.249927E-04   0.734878E-04   0.366778E+00   0.482811E+01
   0.302000E+04   0.256756E-04   0.746457E-04   0.366780E+00   0.482811E+01
   0.303000E+04   0.263572E-04   0.758012E-04   0.366781E+00   0.482811E+01
   0.304000E+04   0.270375E-04   0.769545E-04   0.366782E+00   0.482811E+01
   0.305000E+04   0.277165E-04   0.781056E-04   0.366784E+00   0.482811E+01
   0.306000E+04   0.283943E-04   0.792546E-04   0.366785E+00   0.482811E+01
   0.307000E+04   0.290709E-04   0.804017E-04   0.366786E+00   0.482811E+01
   0.308000E+04   0.297464E-04   0.815469E-04   0.366787E+00   0.482811E+01
   0.309000E+04   0.304207E-04   0.826903E-04   0.366788E+00   0.482811E+01
   0.310000E+04   0.310939E-04   0.838321E-04   0.366790E+00   0.482811E+01
   0.311000E+04   0.317660E-04   0.849724E-04   0.366791E+00   0.482811E+01
   0.312000E+04   0.324372E-04   0.861111E-04   0.366792E+00   0.482811E+01
   0.313000E+04   0.331073E-04   0.872485E-04   0.366793E+00   0.482811E+01
   0.314000E+04   0.337764E-04   0.883846E-04   0.366794E+00   0.482811E+01
   0.315000E+04   0.344445E-04   0.895195E-04   0.366796E+00   0.482811E+01
   0.316000E+04   0.351118E-04   0.906533E-04   0.366797E+00   0.482811E+01
   0.317000E+04   0.357781E-04   0.917861E-04   0.366798E+00   0.482811E+01
   0.318000E+04   0.364436E-04   0.929180E-04   0.366799E+00   0.482811E+01
   0.319000E+04   0.371082E-04   0.940491E-04   0.366800E+00   0.482811E+01
   0.320000E+04   0.377720E-04   0.951795E-04   0.366801E+00   0.482811E+01
   0.321000E+04   0.384351E-04   0.963093E-04   0.366803E+00   0.482811E+01
   0.322000E+04   0.390973E-04   0.974386E-04   0.366804E+00   0.482811E+01
   0.323000E+04   0.397588E-04   0.985675E-04   0.366805E+00   0.482811E+01
   0.324000E+04   0.404195E-04   0.996961E-04   0.366806E+00   0.482811E+01
   0.325000E+04   0.410795E-04   0.100824E-03   0.366807E+00   0.482811E+01
   0.326000E+04   0.417388E-04   0.101953E-03   0.366808E+00   0.482811E+01
   0.327000E+04   0.423975E-04   0.103081E-03   0.366809E+00   0.482811E+01
   0.328000E+04   0.430554E-04   0.104209E-03   0.366810E+00   0.482811E+01
   0.329000E+04   0.437127E-04   0.105338E-03   0.366811E+00   0.482811E+01
   0.330000E+04   0.443693E-04   0.106466E-03   0.366812E+00   0.482811E+01
   0.331000E+04   0.450253E-04   0.107595E-03   0.366813E+00   0.482811E+01
   0.332000E+04   0.456807E-04   0.108725E-03   0.366815E+00   0.482811E+01
   0.333000E+04   0.463354E-04   0.109855E-03   0.366816E+00   0.482811E+01
   0.334000E+04   0.469895E-04   0.110985E-03   0.366817E+00   0.482811E+01
   0.335000E+04   0.476429E-04   0.112116E-03   0.366818E+00   0.482811E+01
   0.336000E+04   0.482957E-04   0.113247E-03   0.366819E+00   0.482811E+01
   0.337000E+04   0.489479E-04   0.114379E-03   0.366820E+00   0.482811E+01
   0.338000E+04   0.495994E-04   0.115512E-03   0.366821E+00   0.482811E+01
   0.339000E+04   0.502503E-04   0.116645E-03   0.366822E+00   0.482811E+01
   0.340000E+04   0.509005E-04   0.117779E-03   0.366823E+00   0.482811E+01
   0.341000E+04   0.515500E-04   0.118914E-03   0.366824E+00   0.482811E+01
   0.342000E+04   0.521989E-04   0.120050E-03   0.366825E+00   0.482811E+01
   0.343000E+04   0.528470E-04   0.121186E-03   0.366826E+00   0.482811E+01
   0.344000E+04   0.534944E-04   0.122323E-03   0.366827E+00   0.482811E+01
   0.345000E+04   0.541410E-04   0.123460E-03   0.366828E+00   0.482811E+01
   0.346000E+04   0.547868E-04   0.124598E-03   0.366829E+00   0.482811E+01
   0.347000E+04   0.554319E-04   0.125737E-03   0.366830E+00   0.482811E+01
   0.348000E+04   0.560761E-04   0.126876E-03   0.366831E+00   0.482811E+01
   0.349000E+04   0.567194E-04   0.128016E-03   0.366832E+00   0.482811E+01
   0.350000E+04   0.573618E-04   0.129155E-03   0.366833E+00   0.482811E+01
   0.351000E+04   0.580032E-04   0.130296E-03   0.366834E+00   0.482811E+01
   0.352000E+04   0.586436E-04   0.131436E-03   0.366835E+00   0.482811E+01
   0.353000E+04   0.592830E-04   0.132576E-03   0.366836E+00   0.482811E+01
   0.354000E+04   0.599213E-04   0.133716E-03   0.366837E+00   0.482811E+01
   0.355000E+04   0.605584E-04   0.134856E-03   0.366837E+00   0.482811E+01
   0.356000E+04   0.611943E-04   0.135995E-03   0.366838E+00   0.482811E+01
   0.357000E+04   0.618289E-04   0.137133E-03   0.366839E+00   0.482811E+01
   0.358000E+04   0.624622E-04   0.138271E-03   0.366840E+00   0.482811E+01
   0.359000E+04   0.630941E-04   0.139407E-03   0.366841E+00   0.482811E+01
   0.360000E+04   0.637244E-04   0.140542E-03   0.366842E+00   0.482811E+01
   0.361000E+04   0.643532E-04   0.141675E-03   0.366843E+00   0.482811E+01
   0.362000E+04   0.649804E-04   0.142806E-03   0.366844E+00   0.482811E+01
   0.363000E+04   0.656058E-04   0.143935E-03   0.366845E+00   0.482811E+01
   0.364000E+04   0.662294E-04   0.145062E-03   0.366845E+00   0.482811E+01
   0.365000E+04   0.668511E-04   0.146185E-03   0.366846E+00   0.482811E+01
   0.366000E+04   0.674708E-04   0.147306E-03   0.366847E+00   0.482811E+01
   0.367000E+04   0.680884E-04   0.148422E-03   0.366848E+00   0.482811E+01
   0.368000E+04   0.687039E-04   0.149535E-03   0.366849E+00   0.482811E+01
   0.369000E+04   0.693171E-04   0.150644E-03   0.366850E+00   0.482811E+01
   0.370000E+04   0.699279E-04   0.151748E-03   0.366850E+00   0.482811E+01
   0.371000E+04   0.705364E-04   0.152848E-03   0.366851E+00   0.482811E+01
   0.372000E+04   0.711423E-04   0.153942E-03   0.366852E+00   0.482811E+01
   0.373000E+04   0.717456E-04   0.155031E-03   0.366853E+00   0.482811E+01
   0.374000E+04   0.723463E-04   0.156115E-03   0.366854E+00   0.482811E+01
   0.375000E+04   0.729442E-04   0.157192E-03   0.366854E+00   0.482811E+01
   0.376000E+04   0.735394E-04   0.158264E-03   0.366855E+00   0.482811E+01
   0.377000E+04   0.741317E-04   0.159330E-03   0.366856E+00   0.482811E+01
   0.378000E+04   0.747211E-04   0.160389E-03   0.366857E+00   0.482811E+01
   0.379000E+04   0.753076E-04   0.161442E-03   0.366857E+00   0.482811E+01
   0.380000E+04   0.758911E-04   0.162488E-03   0.366858E+00   0.482811E+01
   0.381000E+04   0.764717E-04   0.163528E-03   0.366859E+00   0.482811E+01
   0.382000E+04   0.770491E-04   0.164562E-03   0.366860E+00   0.482811E+01
   0.383000E+04   0.776236E-04   0.165589E-03   0.366860E+00   0.482811E+01
   0.384000E+04   0.781949E-04   0.166609E-03   0.366861E+00   0.482811E+01
   0.385000E+04   0.787632E-04   0.167624E-03   0.366862E+00   0.482811E+01
   0.386000E+04   0.793284E-04   0.168632E-03   0.366862E+00   0.482811E+01
   0.387000E+04   0.798906E-04   0.169634E-03   0.366863E+00   0.482811E+01
   0.388000E+04   0.804497E-04   0.170630E-03   0.366864E+00   0.482811E+01
   0.389000E+04   0.810058E-04   0.171620E-03   0.366865E+00   0.482811E+01
   0.390000E+04   0.815589E-04   0.172604E-03   0.366865E+00   0.482811E+01
   0.391000E+04   0.821090E-04   0.173583E-03   0.366866E+00   0.482811E+01
   0.392000E+04   0.826562E-04   0.174556E-03   0.366867E+00   0.482811E+01
   0.393000E+04   0.832005E-04   0.175524E-03   0.366867E+00   0.482811E+01