title="breakthrough data set at     5 wells"
variables="time(days)","cavg","cpk","upk","zswi"
zone i=     1295
   0.100000E+02   0.352886E-11   0.632782E-11   0.471318E+00   0.485127E+01
   0.200000E+02   0.784118E-11   0.144745E-10   0.386835E+00   0.483058E+01
   0.300000E+02   0.160166E-10   0.299640E-10   0.386425E+00   0.483058E+01
   0.400000E+02   0.303506E-10   0.571574E-10   0.386399E+00   0.483058E+01
   0.500000E+02   0.539596E-10   0.101944E-09   0.386391E+00   0.483058E+01
   0.600000E+02   0.910163E-10   0.172151E-09   0.386396E+00   0.483058E+01
   0.700000E+02   0.146946E-09   0.277876E-09   0.386403E+00   0.483058E+01
   0.800000E+02   0.228774E-09   0.432088E-09   0.386420E+00   0.483058E+01
   0.900000E+02   0.345344E-09   0.650983E-09   0.386440E+00   0.483058E+01
   0.100000E+03   0.507637E-09   0.954525E-09   0.386463E+00   0.483058E+01
   0.110000E+03   0.729578E-09   0.136786E-08   0.386464E+00   0.483058E+01
   0.120000E+03   0.102708E-08   0.191949E-08   0.386488E+00   0.483058E+01
   0.130000E+03   0.141954E-08   0.264401E-08   0.386515E+00   0.483058E+01
   0.140000E+03   0.192977E-08   0.358181E-08   0.386542E+00   0.483058E+01
   0.150000E+03   0.258425E-08   0.477955E-08   0.386571E+00   0.483058E+01
   0.160000E+03   0.341336E-08   0.629049E-08   0.386600E+00   0.483058E+01
   0.170000E+03   0.445158E-08   0.817483E-08   0.386629E+00   0.483058E+01
   0.180000E+03   0.573765E-08   0.104999E-07   0.386659E+00   0.483058E+01
   0.190000E+03   0.731465E-08   0.133402E-07   0.386689E+00   0.483058E+01
   0.200000E+03   0.923007E-08   0.167777E-07   0.386719E+00   0.483058E+01
   0.210000E+03   0.115358E-07   0.209014E-07   0.386749E+00   0.483058E+01
   0.220000E+03   0.142880E-07   0.258077E-07   0.386779E+00   0.483058E+01
   0.230000E+03   0.175471E-07   0.315995E-07   0.386808E+00   0.483058E+01
   0.240000E+03   0.213776E-07   0.383864E-07   0.386837E+00   0.483058E+01
   0.250000E+03   0.258476E-07   0.462843E-07   0.386866E+00   0.483058E+01
   0.260000E+03   0.310289E-07   0.554142E-07   0.386895E+00   0.483058E+01
   0.270000E+03   0.369966E-07   0.659025E-07   0.386923E+00   0.483058E+01
   0.280000E+03   0.438283E-07   0.778796E-07   0.386950E+00   0.483058E+01
   0.290000E+03   0.516041E-07   0.914795E-07   0.386976E+00   0.483058E+01
   0.300000E+03   0.604063E-07   0.106839E-06   0.387002E+00   0.483058E+01
   0.310000E+03   0.703185E-07   0.124097E-06   0.387028E+00   0.483058E+01
   0.320000E+03   0.814253E-07   0.143393E-06   0.387052E+00   0.483058E+01
   0.330000E+03   0.938120E-07   0.164868E-06   0.387076E+00   0.483058E+01
   0.340000E+03   0.107564E-06   0.188659E-06   0.387100E+00   0.483058E+01
   0.350000E+03   0.122765E-06   0.214905E-06   0.387123E+00   0.483058E+01
   0.360000E+03   0.139500E-06   0.243742E-06   0.387145E+00   0.483058E+01
   0.370000E+03   0.157852E-06   0.275301E-06   0.387166E+00   0.483058E+01
   0.380000E+03   0.177901E-06   0.309710E-06   0.387187E+00   0.483058E+01
   0.390000E+03   0.199725E-06   0.347094E-06   0.387207E+00   0.483058E+01
   0.400000E+03   0.223402E-06   0.387571E-06   0.387227E+00   0.483058E+01
   0.410000E+03   0.249005E-06   0.431254E-06   0.387246E+00   0.483058E+01
   0.420000E+03   0.276603E-06   0.478249E-06   0.387265E+00   0.483058E+01
   0.430000E+03   0.306264E-06   0.528657E-06   0.387282E+00   0.483058E+01
   0.440000E+03   0.338051E-06   0.582570E-06   0.387300E+00   0.483058E+01
   0.450000E+03   0.372024E-06   0.640074E-06   0.387317E+00   0.483058E+01
   0.460000E+03   0.408239E-06   0.701248E-06   0.387333E+00   0.483058E+01
   0.470000E+03   0.446745E-06   0.766161E-06   0.387349E+00   0.483058E+01
   0.480000E+03   0.487592E-06   0.834876E-06   0.387364E+00   0.483058E+01
   0.490000E+03   0.530821E-06   0.907448E-06   0.387379E+00   0.483058E+01
   0.500000E+03   0.576470E-06   0.983922E-06   0.387393E+00   0.483058E+01
   0.510000E+03   0.624575E-06   0.106434E-05   0.387407E+00   0.483058E+01
   0.520000E+03   0.675163E-06   0.114872E-05   0.387421E+00   0.483058E+01
   0.530000E+03   0.728261E-06   0.123710E-05   0.387434E+00   0.483058E+01
   0.540000E+03   0.783888E-06   0.132948E-05   0.387447E+00   0.483058E+01
   0.550000E+03   0.842060E-06   0.142588E-05   0.387459E+00   0.483058E+01
   0.560000E+03   0.902790E-06   0.152629E-05   0.387471E+00   0.483058E+01
   0.570000E+03   0.966085E-06   0.163070E-05   0.387482E+00   0.483058E+01
   0.580000E+03   0.103195E-05   0.173910E-05   0.387493E+00   0.483058E+01
   0.590000E+03   0.110038E-05   0.185147E-05   0.387504E+00   0.483058E+01
   0.600000E+03   0.117136E-05   0.196777E-05   0.387515E+00   0.483058E+01
   0.610000E+03   0.124490E-05   0.208798E-05   0.387525E+00   0.483058E+01
   0.620000E+03   0.132098E-05   0.221204E-05   0.387534E+00   0.483058E+01
   0.630000E+03   0.139958E-05   0.233991E-05   0.387544E+00   0.483058E+01
   0.640000E+03   0.148067E-05   0.247154E-05   0.387553E+00   0.483058E+01
   0.650000E+03   0.156424E-05   0.260686E-05   0.387561E+00   0.483058E+01
   0.660000E+03   0.165025E-05   0.274581E-05   0.387570E+00   0.483058E+01
   0.670000E+03   0.173867E-05   0.288832E-05   0.387578E+00   0.483058E+01
   0.680000E+03   0.182946E-05   0.303431E-05   0.387586E+00   0.483058E+01
   0.690000E+03   0.192258E-05   0.318371E-05   0.387594E+00   0.483058E+01
   0.700000E+03   0.201799E-05   0.333642E-05   0.387602E+00   0.483058E+01
   0.710000E+03   0.211564E-05   0.349236E-05   0.387609E+00   0.483058E+01
   0.720000E+03   0.221547E-05   0.365143E-05   0.387617E+00   0.483058E+01
   0.730000E+03   0.231744E-05   0.381352E-05   0.387624E+00   0.483058E+01
   0.740000E+03   0.242147E-05   0.397855E-05   0.387631E+00   0.483058E+01
   0.750000E+03   0.252752E-05   0.414640E-05   0.387637E+00   0.483058E+01
   0.760000E+03   0.263551E-05   0.431695E-05   0.387644E+00   0.483058E+01
   0.770000E+03   0.274537E-05   0.449010E-05   0.387650E+00   0.483058E+01
   0.780000E+03   0.285702E-05   0.466572E-05   0.387656E+00   0.483058E+01
   0.790000E+03   0.297040E-05   0.484369E-05   0.387663E+00   0.483058E+01
   0.800000E+03   0.308542E-05   0.502389E-05   0.387668E+00   0.483058E+01
   0.810000E+03   0.320199E-05   0.520618E-05   0.387674E+00   0.483058E+01
   0.820000E+03   0.332002E-05   0.539044E-05   0.387680E+00   0.483058E+01
   0.830000E+03   0.343942E-05   0.557653E-05   0.387685E+00   0.483058E+01
   0.840000E+03   0.356010E-05   0.576430E-05   0.387691E+00   0.483058E+01
   0.850000E+03   0.368194E-05   0.595363E-05   0.387696E+00   0.483058E+01
   0.860000E+03   0.380486E-05   0.614436E-05   0.387701E+00   0.483058E+01
   0.870000E+03   0.392872E-05   0.633636E-05   0.387706E+00   0.483058E+01
   0.880000E+03   0.405343E-05   0.652946E-05   0.387711E+00   0.483058E+01
   0.890000E+03   0.417887E-05   0.672353E-05   0.387716E+00   0.483058E+01
   0.900000E+03   0.430490E-05   0.691840E-05   0.387720E+00   0.483058E+01
   0.910000E+03   0.443141E-05   0.711392E-05   0.387725E+00   0.483058E+01
   0.920000E+03   0.455827E-05   0.730995E-05   0.387729E+00   0.483058E+01
   0.930000E+03   0.468533E-05   0.750631E-05   0.387733E+00   0.483058E+01
   0.940000E+03   0.481248E-05   0.770286E-05   0.387737E+00   0.483058E+01
   0.950000E+03   0.493955E-05   0.789943E-05   0.387741E+00   0.483058E+01
   0.960000E+03   0.506641E-05   0.809587E-05   0.387745E+00   0.483058E+01
   0.970000E+03   0.519292E-05   0.829202E-05   0.387749E+00   0.483058E+01
   0.980000E+03   0.531891E-05   0.848771E-05   0.387753E+00   0.483058E+01
   0.990000E+03   0.544424E-05   0.868279E-05   0.387757E+00   0.483058E+01
   0.100000E+04   0.556876E-05   0.887710E-05   0.387760E+00   0.483058E+01
   0.101000E+04   0.569230E-05   0.907050E-05   0.387764E+00   0.483058E+01
   0.102000E+04   0.581471E-05   0.926282E-05   0.387768E+00   0.483058E+01
   0.103000E+04   0.593582E-05   0.945391E-05   0.387771E+00   0.483058E+01
   0.104000E+04   0.605548E-05   0.964362E-05   0.387775E+00   0.483058E+01
   0.105000E+04   0.617352E-05   0.983182E-05   0.387778E+00   0.483058E+01
   0.106000E+04   0.628978E-05   0.100183E-04   0.387781E+00   0.483058E+01
   0.107000E+04   0.640410E-05   0.102031E-04   0.387785E+00   0.483058E+01
   0.108000E+04   0.651630E-05   0.103858E-04   0.387788E+00   0.483058E+01
   0.109000E+04   0.662623E-05   0.105666E-04   0.387791E+00   0.483058E+01
   0.110000E+04   0.673373E-05   0.107451E-04   0.387795E+00   0.483058E+01
   0.111000E+04   0.683862E-05   0.109212E-04   0.387798E+00   0.483058E+01
   0.112000E+04   0.694076E-05   0.110950E-04   0.387801E+00   0.483058E+01
   0.113000E+04   0.703998E-05   0.112661E-04   0.387804E+00   0.483058E+01
   0.114000E+04   0.713613E-05   0.114346E-04   0.387807E+00   0.483058E+01
   0.115000E+04   0.722904E-05   0.116004E-04   0.387810E+00   0.483058E+01
   0.116000E+04   0.731858E-05   0.117633E-04   0.387813E+00   0.483058E+01
   0.117000E+04   0.740459E-05   0.119232E-04   0.387816E+00   0.483058E+01
   0.118000E+04   0.748693E-05   0.120801E-04   0.387819E+00   0.483058E+01
   0.119000E+04   0.756545E-05   0.122339E-04   0.387822E+00   0.483058E+01
   0.120000E+04   0.764002E-05   0.123845E-04   0.387825E+00   0.483058E+01
   0.121000E+04   0.771050E-05   0.125318E-04   0.387827E+00   0.483058E+01
   0.122000E+04   0.777678E-05   0.126758E-04   0.387830E+00   0.483058E+01
   0.123000E+04   0.783871E-05   0.128165E-04   0.387832E+00   0.483058E+01
   0.124000E+04   0.789620E-05   0.129537E-04   0.387835E+00   0.483058E+01
   0.125000E+04   0.794913E-05   0.130875E-04   0.387837E+00   0.483058E+01
   0.126000E+04   0.799738E-05   0.132178E-04   0.387840E+00   0.483058E+01
   0.127000E+04   0.804087E-05   0.133446E-04   0.387842E+00   0.483058E+01
   0.128000E+04   0.807950E-05   0.134679E-04   0.387844E+00   0.483058E+01
   0.129000E+04   0.811318E-05   0.135876E-04   0.387846E+00   0.483058E+01
   0.130000E+04   0.814184E-05   0.137037E-04   0.387849E+00   0.483058E+01
   0.131000E+04   0.816540E-05   0.138162E-04   0.387851E+00   0.483058E+01
   0.132000E+04   0.818379E-05   0.139252E-04   0.387853E+00   0.483058E+01
   0.133000E+04   0.819697E-05   0.140307E-04   0.387855E+00   0.483058E+01
   0.134000E+04   0.820487E-05   0.141325E-04   0.387857E+00   0.483058E+01
   0.135000E+04   0.820745E-05   0.142309E-04   0.387859E+00   0.483058E+01
   0.136000E+04   0.820468E-05   0.143257E-04   0.387860E+00   0.483058E+01
   0.137000E+04   0.819653E-05   0.144170E-04   0.387862E+00   0.483058E+01
   0.138000E+04   0.818296E-05   0.145049E-04   0.387864E+00   0.483058E+01
   0.139000E+04   0.816398E-05   0.145893E-04   0.387866E+00   0.483058E+01
   0.140000E+04   0.813956E-05   0.146703E-04   0.387867E+00   0.483058E+01
   0.141000E+04   0.810971E-05   0.147480E-04   0.387869E+00   0.483058E+01
   0.142000E+04   0.807442E-05   0.148224E-04   0.387870E+00   0.483058E+01
   0.143000E+04   0.803372E-05   0.148935E-04   0.387872E+00   0.483058E+01
   0.144000E+04   0.798761E-05   0.149614E-04   0.387873E+00   0.483058E+01
   0.145000E+04   0.793613E-05   0.150262E-04   0.387875E+00   0.483058E+01
   0.146000E+04   0.787929E-05   0.150878E-04   0.387876E+00   0.483058E+01
   0.147000E+04   0.781715E-05   0.151464E-04   0.387878E+00   0.483058E+01
   0.148000E+04   0.774974E-05   0.152020E-04   0.387879E+00   0.483058E+01
   0.149000E+04   0.767710E-05   0.152547E-04   0.387880E+00   0.483058E+01
   0.150000E+04   0.759930E-05   0.153045E-04   0.387882E+00   0.483058E+01
   0.151000E+04   0.751639E-05   0.153516E-04   0.387883E+00   0.483058E+01
   0.152000E+04   0.742843E-05   0.153959E-04   0.387884E+00   0.483058E+01
   0.153000E+04   0.733549E-05   0.154376E-04   0.387885E+00   0.483058E+01
   0.154000E+04   0.723766E-05   0.154767E-04   0.387886E+00   0.483058E+01
   0.155000E+04   0.713500E-05   0.155132E-04   0.387888E+00   0.483058E+01
   0.156000E+04   0.702760E-05   0.155474E-04   0.387889E+00   0.483058E+01
   0.157000E+04   0.691555E-05   0.155792E-04   0.387890E+00   0.483058E+01
   0.158000E+04   0.679895E-05   0.156087E-04   0.387891E+00   0.483058E+01
   0.159000E+04   0.667788E-05   0.156359E-04   0.387892E+00   0.483058E+01
   0.160000E+04   0.655244E-05   0.156611E-04   0.387894E+00   0.483058E+01
   0.161000E+04   0.642275E-05   0.156842E-04   0.387895E+00   0.483058E+01
   0.162000E+04   0.628891E-05   0.157054E-04   0.387896E+00   0.483058E+01
   0.163000E+04   0.615102E-05   0.157246E-04   0.387897E+00   0.483058E+01
   0.164000E+04   0.600921E-05   0.157420E-04   0.387899E+00   0.483058E+01
   0.165000E+04   0.586359E-05   0.157577E-04   0.387900E+00   0.483058E+01
   0.166000E+04   0.571427E-05   0.157718E-04   0.387901E+00   0.483058E+01
   0.167000E+04   0.556139E-05   0.157842E-04   0.387903E+00   0.483058E+01
   0.168000E+04   0.540506E-05   0.157952E-04   0.387904E+00   0.483058E+01
   0.169000E+04   0.524541E-05   0.158047E-04   0.387905E+00   0.483058E+01
   0.170000E+04   0.508256E-05   0.158129E-04   0.387907E+00   0.483058E+01
   0.171000E+04   0.491666E-05   0.158199E-04   0.387908E+00   0.483058E+01
   0.172000E+04   0.474782E-05   0.158256E-04   0.387909E+00   0.483058E+01
   0.173000E+04   0.457618E-05   0.158303E-04   0.387911E+00   0.483058E+01
   0.174000E+04   0.440187E-05   0.158339E-04   0.387912E+00   0.483058E+01
   0.175000E+04   0.422503E-05   0.158365E-04   0.387913E+00   0.483058E+01
   0.176000E+04   0.404580E-05   0.158383E-04   0.387915E+00   0.483058E+01
   0.177000E+04   0.386429E-05   0.158392E-04   0.387916E+00   0.483058E+01
   0.178000E+04   0.368067E-05   0.158855E-04   0.387917E+00   0.483058E+01
   0.179000E+04   0.349504E-05   0.159504E-04   0.387918E+00   0.483058E+01
   0.180000E+04   0.330757E-05   0.160144E-04   0.387919E+00   0.483058E+01
   0.181000E+04   0.311837E-05   0.160774E-04   0.387921E+00   0.483058E+01
   0.182000E+04   0.292759E-05   0.161396E-04   0.387922E+00   0.483058E+01
   0.183000E+04   0.273535E-05   0.162008E-04   0.387923E+00   0.483058E+01
   0.184000E+04   0.254180E-05   0.162613E-04   0.387924E+00   0.483058E+01
   0.185000E+04   0.234708E-05   0.163209E-04   0.387925E+00   0.483058E+01
   0.186000E+04   0.215130E-05   0.163797E-04   0.387926E+00   0.483058E+01
   0.187000E+04   0.195461E-05   0.164377E-04   0.387927E+00   0.483058E+01
   0.188000E+04   0.175714E-05   0.164950E-04   0.387928E+00   0.483058E+01
   0.189000E+04   0.155902E-05   0.165515E-04   0.387929E+00   0.483058E+01
   0.190000E+04   0.136038E-05   0.166073E-04   0.387930E+00   0.483058E+01
   0.191000E+04   0.116134E-05   0.166624E-04   0.387931E+00   0.483058E+01
   0.192000E+04   0.962042E-06   0.167169E-04   0.387932E+00   0.483058E+01
   0.193000E+04   0.762603E-06   0.167706E-04   0.387933E+00   0.483058E+01
   0.194000E+04   0.563149E-06   0.168238E-04   0.387934E+00   0.483058E+01
   0.195000E+04   0.363805E-06   0.168764E-04   0.387935E+00   0.483058E+01
   0.196000E+04   0.164692E-06   0.169283E-04   0.387936E+00   0.483058E+01
   0.197000E+04  -0.340703E-07   0.169797E-04   0.387937E+00   0.483058E+01
   0.198000E+04  -0.232363E-06   0.170306E-04   0.387938E+00   0.483058E+01
   0.199000E+04  -0.430071E-06   0.170809E-04   0.387938E+00   0.483058E+01
   0.200000E+04  -0.627077E-06   0.171307E-04   0.387939E+00   0.483058E+01
   0.201000E+04  -0.823270E-06   0.171800E-04   0.387940E+00   0.483058E+01
   0.202000E+04  -0.101854E-05   0.172289E-04   0.387941E+00   0.483058E+01
   0.203000E+04  -0.121277E-05   0.172773E-04   0.387942E+00   0.483058E+01
   0.204000E+04  -0.140586E-05   0.173252E-04   0.387942E+00   0.483058E+01
   0.205000E+04  -0.159771E-05   0.173728E-04   0.387943E+00   0.483058E+01
   0.206000E+04  -0.178820E-05   0.174199E-04   0.387944E+00   0.483058E+01
   0.207000E+04  -0.197724E-05   0.174667E-04   0.387944E+00   0.483058E+01
   0.208000E+04  -0.216472E-05   0.175131E-04   0.387945E+00   0.483058E+01
   0.209000E+04  -0.235056E-05   0.175592E-04   0.387946E+00   0.483058E+01
   0.210000E+04  -0.253465E-05   0.176050E-04   0.387946E+00   0.483058E+01
   0.211000E+04  -0.271690E-05   0.176504E-04   0.387947E+00   0.483058E+01
   0.212000E+04  -0.289722E-05   0.176956E-04   0.387948E+00   0.483058E+01
   0.213000E+04  -0.307552E-05   0.177405E-04   0.387948E+00   0.483058E+01
   0.214000E+04  -0.325172E-05   0.177851E-04   0.387949E+00   0.483058E+01
   0.215000E+04  -0.342571E-05   0.178295E-04   0.387950E+00   0.483058E+01
   0.216000E+04  -0.359743E-05   0.178737E-04   0.387950E+00   0.483058E+01
   0.217000E+04  -0.376679E-05   0.179177E-04   0.387951E+00   0.483058E+01
   0.218000E+04  -0.393371E-05   0.179615E-04   0.387951E+00   0.483058E+01
   0.219000E+04  -0.409812E-05   0.180051E-04   0.387952E+00   0.483058E+01
   0.220000E+04  -0.425994E-05   0.180485E-04   0.387952E+00   0.483058E+01
   0.221000E+04  -0.441909E-05   0.180918E-04   0.387953E+00   0.483058E+01
   0.222000E+04  -0.457551E-05   0.181349E-04   0.387954E+00   0.483058E+01
   0.223000E+04  -0.472912E-05   0.181779E-04   0.387954E+00   0.483058E+01
   0.224000E+04  -0.487987E-05   0.182209E-04   0.387955E+00   0.483058E+01
   0.225000E+04  -0.502768E-05   0.182637E-04   0.387955E+00   0.483058E+01
   0.226000E+04  -0.517249E-05   0.183064E-04   0.387956E+00   0.483058E+01
   0.227000E+04  -0.531424E-05   0.183491E-04   0.387956E+00   0.483058E+01
   0.228000E+04  -0.545288E-05   0.183917E-04   0.387957E+00   0.483058E+01
   0.229000E+04  -0.558835E-05   0.184343E-04   0.387957E+00   0.483058E+01
   0.230000E+04  -0.572059E-05   0.184768E-04   0.387958E+00   0.483058E+01
   0.231000E+04  -0.584956E-05   0.185193E-04   0.387958E+00   0.483058E+01
   0.232000E+04  -0.597520E-05   0.185618E-04   0.387959E+00   0.483058E+01
   0.233000E+04  -0.609746E-05   0.186043E-04   0.387959E+00   0.483058E+01
   0.234000E+04  -0.621631E-05   0.186468E-04   0.387960E+00   0.483058E+01
   0.235000E+04  -0.633169E-05   0.186894E-04   0.387960E+00   0.483058E+01
   0.236000E+04  -0.644357E-05   0.187319E-04   0.387961E+00   0.483058E+01
   0.237000E+04  -0.655191E-05   0.187745E-04   0.387961E+00   0.483058E+01
   0.238000E+04  -0.665667E-05   0.188172E-04   0.387962E+00   0.483058E+01
   0.239000E+04  -0.675782E-05   0.188599E-04   0.387962E+00   0.483058E+01
   0.240000E+04  -0.685532E-05   0.189026E-04   0.387963E+00   0.483058E+01
   0.241000E+04  -0.694914E-05   0.189455E-04   0.387963E+00   0.483058E+01
   0.242000E+04  -0.703926E-05   0.189884E-04   0.387964E+00   0.483058E+01
   0.243000E+04  -0.712565E-05   0.190314E-04   0.387964E+00   0.483058E+01
   0.244000E+04  -0.720829E-05   0.190745E-04   0.387965E+00   0.483058E+01
   0.245000E+04  -0.728714E-05   0.191177E-04   0.387965E+00   0.483058E+01
   0.246000E+04  -0.736221E-05   0.191610E-04   0.387966E+00   0.483058E+01
   0.247000E+04  -0.743345E-05   0.192044E-04   0.387966E+00   0.483058E+01
   0.248000E+04  -0.750087E-05   0.192480E-04   0.387966E+00   0.483058E+01
   0.249000E+04  -0.756444E-05   0.192917E-04   0.387967E+00   0.483058E+01
   0.250000E+04  -0.762415E-05   0.193355E-04   0.387967E+00   0.483058E+01
   0.251000E+04  -0.768000E-05   0.193794E-04   0.387968E+00   0.483058E+01
   0.252000E+04  -0.773197E-05   0.194235E-04   0.387968E+00   0.483058E+01
   0.253000E+04  -0.778006E-05   0.194677E-04   0.387969E+00   0.483058E+01
   0.254000E+04  -0.782427E-05   0.195121E-04   0.387969E+00   0.483058E+01
   0.255000E+04  -0.786458E-05   0.195566E-04   0.387969E+00   0.483058E+01
   0.256000E+04  -0.790100E-05   0.196013E-04   0.387970E+00   0.483058E+01
   0.257000E+04  -0.793354E-05   0.196461E-04   0.387970E+00   0.483058E+01
   0.258000E+04  -0.796219E-05   0.196911E-04   0.387971E+00   0.483058E+01
   0.259000E+04  -0.798695E-05   0.197363E-04   0.387971E+00   0.483058E+01
   0.260000E+04  -0.800784E-05   0.197816E-04   0.387971E+00   0.483058E+01
   0.261000E+04  -0.802486E-05   0.198271E-04   0.387972E+00   0.483058E+01
   0.262000E+04  -0.803802E-05   0.198727E-04   0.387972E+00   0.483058E+01
   0.263000E+04  -0.804733E-05   0.199186E-04   0.387972E+00   0.483058E+01
   0.264000E+04  -0.805280E-05   0.199646E-04   0.387973E+00   0.483058E+01
   0.265000E+04  -0.805445E-05   0.200107E-04   0.387973E+00   0.483058E+01
   0.266000E+04  -0.805229E-05   0.200571E-04   0.387974E+00   0.483058E+01
   0.267000E+04  -0.804634E-05   0.201036E-04   0.387974E+00   0.483058E+01
   0.268000E+04  -0.803662E-05   0.201503E-04   0.387974E+00   0.483058E+01
   0.269000E+04  -0.802314E-05   0.201972E-04   0.387975E+00   0.483058E+01
   0.270000E+04  -0.800592E-05   0.202443E-04   0.387975E+00   0.483058E+01
   0.271000E+04  -0.798499E-05   0.202915E-04   0.387975E+00   0.483058E+01
   0.272000E+04  -0.796037E-05   0.203389E-04   0.387976E+00   0.483058E+01
   0.273000E+04  -0.793208E-05   0.203865E-04   0.387976E+00   0.483058E+01
   0.274000E+04  -0.790015E-05   0.204342E-04   0.387976E+00   0.483058E+01
   0.275000E+04  -0.786460E-05   0.204821E-04   0.387977E+00   0.483058E+01
   0.276000E+04  -0.782546E-05   0.205302E-04   0.387977E+00   0.483058E+01
   0.277000E+04  -0.778276E-05   0.205785E-04   0.387977E+00   0.483058E+01
   0.278000E+04  -0.773652E-05   0.206269E-04   0.387978E+00   0.483058E+01
   0.279000E+04  -0.768678E-05   0.206755E-04   0.387978E+00   0.483058E+01
   0.280000E+04  -0.763357E-05   0.207243E-04   0.387978E+00   0.483058E+01
   0.281000E+04  -0.757690E-05   0.207732E-04   0.387979E+00   0.483058E+01
   0.282000E+04  -0.751682E-05   0.208223E-04   0.387979E+00   0.483058E+01
   0.283000E+04  -0.745336E-05   0.208716E-04   0.387979E+00   0.483058E+01
   0.284000E+04  -0.738655E-05   0.209210E-04   0.387979E+00   0.483058E+01
   0.285000E+04  -0.731642E-05   0.209705E-04   0.387980E+00   0.483058E+01
   0.286000E+04  -0.724300E-05   0.210202E-04   0.387980E+00   0.483058E+01
   0.287000E+04  -0.716633E-05   0.210701E-04   0.387980E+00   0.483058E+01
   0.288000E+04  -0.708643E-05   0.211201E-04   0.387980E+00   0.483058E+01
   0.289000E+04  -0.700335E-05   0.211703E-04   0.387981E+00   0.483058E+01
   0.290000E+04  -0.691712E-05   0.212206E-04   0.387981E+00   0.483058E+01
   0.291000E+04  -0.682777E-05   0.212710E-04   0.387981E+00   0.483058E+01
   0.292000E+04  -0.673533E-05   0.213216E-04   0.387982E+00   0.483058E+01
   0.293000E+04  -0.663984E-05   0.213723E-04   0.387982E+00   0.483058E+01
   0.294000E+04  -0.654134E-05   0.214232E-04   0.387982E+00   0.483058E+01
   0.295000E+04  -0.643985E-05   0.214741E-04   0.387982E+00   0.483058E+01
   0.296000E+04  -0.633541E-05   0.215252E-04   0.387983E+00   0.483058E+01
   0.297000E+04  -0.622805E-05   0.215765E-04   0.387983E+00   0.483058E+01
   0.298000E+04  -0.611781E-05   0.216278E-04   0.387983E+00   0.483058E+01
   0.299000E+04  -0.600472E-05   0.216793E-04   0.387983E+00   0.483058E+01
   0.300000E+04  -0.588882E-05   0.217309E-04   0.387983E+00   0.483058E+01
   0.301000E+04  -0.577014E-05   0.217826E-04   0.387984E+00   0.483058E+01
   0.302000E+04  -0.564870E-05   0.218344E-04   0.387984E+00   0.483058E+01
   0.303000E+04  -0.552455E-05   0.218863E-04   0.387984E+00   0.483058E+01
   0.304000E+04  -0.539772E-05   0.219383E-04   0.387984E+00   0.483058E+01
   0.305000E+04  -0.526824E-05   0.219904E-04   0.387985E+00   0.483058E+01
   0.306000E+04  -0.513613E-05   0.220427E-04   0.387985E+00   0.483058E+01
   0.307000E+04  -0.500144E-05   0.220950E-04   0.387985E+00   0.483058E+01
   0.308000E+04  -0.486420E-05   0.221474E-04   0.387985E+00   0.483058E+01
   0.309000E+04  -0.472443E-05   0.221999E-04   0.387985E+00   0.483058E+01
   0.310000E+04  -0.458217E-05   0.222525E-04   0.387986E+00   0.483058E+01
   0.311000E+04  -0.443744E-05   0.223052E-04   0.387986E+00   0.483058E+01
   0.312000E+04  -0.429029E-05   0.223579E-04   0.387986E+00   0.483058E+01
   0.313000E+04  -0.414073E-05   0.224108E-04   0.387986E+00   0.483058E+01
   0.314000E+04  -0.398881E-05   0.224637E-04   0.387986E+00   0.483058E+01
   0.315000E+04  -0.383454E-05   0.225167E-04   0.387987E+00   0.483058E+01
   0.316000E+04  -0.367796E-05   0.225697E-04   0.387987E+00   0.483058E+01
   0.317000E+04  -0.351910E-05   0.226229E-04   0.387987E+00   0.483058E+01
   0.318000E+04  -0.335799E-05   0.226761E-04   0.387987E+00   0.483058E+01
   0.319000E+04  -0.319465E-05   0.227293E-04   0.387988E+00   0.483058E+01
   0.320000E+04  -0.302911E-05   0.227826E-04   0.387988E+00   0.483058E+01
   0.321000E+04  -0.286141E-05   0.228360E-04   0.387988E+00   0.483058E+01
   0.322000E+04  -0.269157E-05   0.228894E-04   0.387988E+00   0.483058E+01
   0.323000E+04  -0.251962E-05   0.229429E-04   0.387988E+00   0.483058E+01
   0.324000E+04  -0.234559E-05   0.229965E-04   0.387989E+00   0.483058E+01
   0.325000E+04  -0.216950E-05   0.230500E-04   0.387989E+00   0.483058E+01
   0.326000E+04  -0.199138E-05   0.231037E-04   0.387989E+00   0.483058E+01
   0.327000E+04  -0.181126E-05   0.232043E-04   0.387989E+00   0.483058E+01
   0.328000E+04  -0.162917E-05   0.233093E-04   0.387989E+00   0.483058E+01
   0.329000E+04  -0.144513E-05   0.234146E-04   0.387990E+00   0.483058E+01
   0.330000E+04  -0.125917E-05   0.235202E-04   0.387990E+00   0.483058E+01
   0.331000E+04  -0.107131E-05   0.236259E-04   0.387990E+00   0.483058E+01
   0.332000E+04  -0.881588E-06   0.237319E-04   0.387990E+00   0.483058E+01
   0.333000E+04  -0.690025E-06   0.238381E-04   0.387990E+00   0.483058E+01
   0.334000E+04  -0.496647E-06   0.239446E-04   0.387991E+00   0.483058E+01
   0.335000E+04  -0.301480E-06   0.240512E-04   0.387991E+00   0.483058E+01
   0.336000E+04  -0.104549E-06   0.241580E-04   0.387991E+00   0.483058E+01
   0.337000E+04   0.941186E-07   0.242650E-04   0.387991E+00   0.483058E+01
   0.338000E+04   0.294498E-06   0.243722E-04   0.387991E+00   0.483058E+01
   0.339000E+04   0.496565E-06   0.244795E-04   0.387992E+00   0.483058E+01
   0.340000E+04   0.700292E-06   0.245870E-04   0.387992E+00   0.483058E+01
   0.341000E+04   0.905656E-06   0.246946E-04   0.387992E+00   0.483058E+01
   0.342000E+04   0.111263E-05   0.248024E-04   0.387992E+00   0.483058E+01
   0.343000E+04   0.132119E-05   0.249103E-04   0.387992E+00   0.483058E+01
   0.344000E+04   0.153131E-05   0.250183E-04   0.387993E+00   0.483058E+01
   0.345000E+04   0.174297E-05   0.251265E-04   0.387993E+00   0.483058E+01
   0.346000E+04   0.195614E-05   0.252347E-04   0.387993E+00   0.483058E+01
   0.347000E+04   0.217080E-05   0.253431E-04   0.387993E+00   0.483058E+01
   0.348000E+04   0.238692E-05   0.254516E-04   0.387993E+00   0.483058E+01
   0.349000E+04   0.260448E-05   0.255601E-04   0.387993E+00   0.483058E+01
   0.350000E+04   0.282346E-05   0.256687E-04   0.387994E+00   0.483058E+01
   0.351000E+04   0.304382E-05   0.257774E-04   0.387994E+00   0.483058E+01
   0.352000E+04   0.326556E-05   0.258862E-04   0.387994E+00   0.483058E+01
   0.353000E+04   0.348864E-05   0.259950E-04   0.387994E+00   0.483058E+01
   0.354000E+04   0.371303E-05   0.261038E-04   0.387994E+00   0.483058E+01
   0.355000E+04   0.393873E-05   0.262128E-04   0.387995E+00   0.483058E+01
   0.356000E+04   0.416570E-05   0.263217E-04   0.387995E+00   0.483058E+01
   0.357000E+04   0.439392E-05   0.264307E-04   0.387995E+00   0.483058E+01
   0.358000E+04   0.462337E-05   0.265397E-04   0.387995E+00   0.483058E+01
   0.359000E+04   0.485403E-05   0.266487E-04   0.387995E+00   0.483058E+01
   0.360000E+04   0.508587E-05   0.267578E-04   0.387995E+00   0.483058E+01
   0.361000E+04   0.531887E-05   0.268668E-04   0.387996E+00   0.483058E+01
   0.362000E+04   0.555301E-05   0.269759E-04   0.387996E+00   0.483058E+01
   0.363000E+04   0.578827E-05   0.270849E-04   0.387996E+00   0.483058E+01
   0.364000E+04   0.602462E-05   0.271939E-04   0.387996E+00   0.483058E+01
   0.365000E+04   0.626204E-05   0.273030E-04   0.387996E+00   0.483058E+01
   0.366000E+04   0.650051E-05   0.274120E-04   0.387997E+00   0.483058E+01
   0.367000E+04   0.674002E-05   0.275209E-04   0.387997E+00   0.483058E+01
   0.368000E+04   0.698053E-05   0.276299E-04   0.387997E+00   0.483058E+01
   0.369000E+04   0.722203E-05   0.277388E-04   0.387997E+00   0.483058E+01
   0.370000E+04   0.746450E-05   0.278476E-04   0.387997E+00   0.483058E+01
   0.371000E+04   0.770792E-05   0.279565E-04   0.387997E+00   0.483058E+01
   0.372000E+04   0.795226E-05   0.280652E-04   0.387998E+00   0.483058E+01
   0.373000E+04   0.819751E-05   0.281739E-04   0.387998E+00   0.483058E+01
   0.374000E+04   0.844364E-05   0.282826E-04   0.387998E+00   0.483058E+01
   0.375000E+04   0.869064E-05   0.283912E-04   0.387998E+00   0.483058E+01
   0.376000E+04   0.893848E-05   0.284997E-04   0.387998E+00   0.483058E+01
   0.377000E+04   0.918715E-05   0.286081E-04   0.387998E+00   0.483058E+01
   0.378000E+04   0.943663E-05   0.287165E-04   0.387999E+00   0.483058E+01
   0.379000E+04   0.968689E-05   0.288248E-04   0.387999E+00   0.483058E+01
   0.380000E+04   0.993792E-05   0.289330E-04   0.387999E+00   0.483058E+01
   0.381000E+04   0.101897E-04   0.290411E-04   0.387999E+00   0.483058E+01
   0.382000E+04   0.104422E-04   0.291491E-04   0.387999E+00   0.483058E+01
   0.383000E+04   0.106954E-04   0.292570E-04   0.387999E+00   0.483058E+01
   0.384000E+04   0.109494E-04   0.293648E-04   0.388000E+00   0.483058E+01
   0.385000E+04   0.112040E-04   0.294725E-04   0.388000E+00   0.483058E+01
   0.386000E+04   0.114592E-04   0.295801E-04   0.388000E+00   0.483058E+01
   0.387000E+04   0.117151E-04   0.296876E-04   0.388000E+00   0.483058E+01
   0.388000E+04   0.119716E-04   0.297949E-04   0.388000E+00   0.483058E+01
   0.389000E+04   0.122287E-04   0.299022E-04   0.388000E+00   0.483058E+01
   0.390000E+04   0.124864E-04   0.300093E-04   0.388001E+00   0.483058E+01
   0.391000E+04   0.127447E-04   0.301163E-04   0.388001E+00   0.483058E+01
   0.392000E+04   0.130036E-04   0.302231E-04   0.388001E+00   0.483058E+01
   0.393000E+04   0.132629E-04   0.303299E-04   0.388001E+00   0.483058E+01