title="breakthrough data set at     5 wells"
variables="time(days)","cavg","cpk","upk","zswi"
zone i=     1295
   0.100000E+02   0.587957E-11   0.951633E-11   0.477062E+00   0.486608E+01
   0.200000E+02   0.132945E-10   0.212970E-10   0.384418E+00   0.484401E+01
   0.300000E+02   0.265936E-10   0.422648E-10   0.384280E+00   0.484401E+01
   0.400000E+02   0.493865E-10   0.779781E-10   0.384485E+00   0.484401E+01
   0.500000E+02   0.868531E-10   0.136370E-09   0.384640E+00   0.484401E+01
   0.600000E+02   0.146313E-09   0.228596E-09   0.384775E+00   0.484401E+01
   0.700000E+02   0.237891E-09   0.370008E-09   0.384885E+00   0.484401E+01
   0.800000E+02   0.375267E-09   0.581241E-09   0.384993E+00   0.484401E+01
   0.900000E+02   0.576428E-09   0.889266E-09   0.385069E+00   0.484401E+01
   0.100000E+03   0.864499E-09   0.132856E-08   0.385135E+00   0.484401E+01
   0.110000E+03   0.126855E-08   0.194221E-08   0.385194E+00   0.484401E+01
   0.120000E+03   0.182438E-08   0.278294E-08   0.385246E+00   0.484401E+01
   0.130000E+03   0.257313E-08   0.391070E-08   0.385238E+00   0.484401E+01
   0.140000E+03   0.356711E-08   0.540190E-08   0.385293E+00   0.484401E+01
   0.150000E+03   0.486583E-08   0.734256E-08   0.385340E+00   0.484401E+01
   0.160000E+03   0.654092E-08   0.983597E-08   0.385418E+00   0.484401E+01
   0.170000E+03   0.866649E-08   0.129871E-07   0.385450E+00   0.484401E+01
   0.180000E+03   0.113222E-07   0.169077E-07   0.385447E+00   0.484401E+01
   0.190000E+03   0.146041E-07   0.217333E-07   0.385481E+00   0.484401E+01
   0.200000E+03   0.186115E-07   0.276020E-07   0.385512E+00   0.484401E+01
   0.210000E+03   0.234491E-07   0.346583E-07   0.385541E+00   0.484401E+01
   0.220000E+03   0.292256E-07   0.430513E-07   0.385568E+00   0.484401E+01
   0.230000E+03   0.360529E-07   0.529327E-07   0.385594E+00   0.484401E+01
   0.240000E+03   0.440440E-07   0.644549E-07   0.385619E+00   0.484401E+01
   0.250000E+03   0.533113E-07   0.777682E-07   0.385642E+00   0.484401E+01
   0.260000E+03   0.639655E-07   0.930191E-07   0.385665E+00   0.484401E+01
   0.270000E+03   0.761127E-07   0.110348E-06   0.385686E+00   0.484401E+01
   0.280000E+03   0.898534E-07   0.129885E-06   0.385707E+00   0.484401E+01
   0.290000E+03   0.105280E-06   0.151752E-06   0.385727E+00   0.484401E+01
   0.300000E+03   0.122476E-06   0.176058E-06   0.385747E+00   0.484401E+01
   0.310000E+03   0.141514E-06   0.202897E-06   0.385765E+00   0.484401E+01
   0.320000E+03   0.162454E-06   0.232352E-06   0.385783E+00   0.484401E+01
   0.330000E+03   0.185346E-06   0.264488E-06   0.385800E+00   0.484401E+01
   0.340000E+03   0.210223E-06   0.299354E-06   0.385817E+00   0.484401E+01
   0.350000E+03   0.237104E-06   0.336981E-06   0.385833E+00   0.484401E+01
   0.360000E+03   0.265995E-06   0.377381E-06   0.385848E+00   0.484401E+01
   0.370000E+03   0.296881E-06   0.420547E-06   0.385863E+00   0.484401E+01
   0.380000E+03   0.329734E-06   0.466450E-06   0.385877E+00   0.484401E+01
   0.390000E+03   0.364504E-06   0.515041E-06   0.385890E+00   0.484401E+01
   0.400000E+03   0.401125E-06   0.566249E-06   0.385904E+00   0.484401E+01
   0.410000E+03   0.439513E-06   0.619984E-06   0.385916E+00   0.484401E+01
   0.420000E+03   0.479566E-06   0.676134E-06   0.385929E+00   0.484401E+01
   0.430000E+03   0.521163E-06   0.734565E-06   0.385941E+00   0.484401E+01
   0.440000E+03   0.564162E-06   0.795123E-06   0.385953E+00   0.484401E+01
   0.450000E+03   0.608406E-06   0.857630E-06   0.385965E+00   0.484401E+01
   0.460000E+03   0.653716E-06   0.921882E-06   0.385976E+00   0.484401E+01
   0.470000E+03   0.699891E-06   0.987653E-06   0.385987E+00   0.484401E+01
   0.480000E+03   0.746713E-06   0.105469E-05   0.385998E+00   0.484401E+01
   0.490000E+03   0.793943E-06   0.112272E-05   0.386008E+00   0.484401E+01
   0.500000E+03   0.841320E-06   0.119144E-05   0.386018E+00   0.484401E+01
   0.510000E+03   0.888566E-06   0.126052E-05   0.386027E+00   0.484401E+01
   0.520000E+03   0.935387E-06   0.132963E-05   0.386037E+00   0.484401E+01
   0.530000E+03   0.981470E-06   0.139839E-05   0.386046E+00   0.484401E+01
   0.540000E+03   0.102649E-05   0.146644E-05   0.386054E+00   0.484401E+01
   0.550000E+03   0.107011E-05   0.153338E-05   0.386062E+00   0.484401E+01
   0.560000E+03   0.111199E-05   0.159881E-05   0.386070E+00   0.484401E+01
   0.570000E+03   0.115177E-05   0.166234E-05   0.386078E+00   0.484401E+01
   0.580000E+03   0.118910E-05   0.172355E-05   0.386086E+00   0.484401E+01
   0.590000E+03   0.122364E-05   0.178204E-05   0.386093E+00   0.484401E+01
   0.600000E+03   0.125503E-05   0.183744E-05   0.386100E+00   0.484401E+01
   0.610000E+03   0.128296E-05   0.188936E-05   0.386106E+00   0.484401E+01
   0.620000E+03   0.130709E-05   0.193744E-05   0.386113E+00   0.484401E+01
   0.630000E+03   0.132713E-05   0.198135E-05   0.386119E+00   0.484401E+01
   0.640000E+03   0.134278E-05   0.202077E-05   0.386125E+00   0.484401E+01
   0.650000E+03   0.135380E-05   0.205541E-05   0.386132E+00   0.484401E+01
   0.660000E+03   0.135993E-05   0.208501E-05   0.386137E+00   0.484401E+01
   0.670000E+03   0.136095E-05   0.210932E-05   0.386143E+00   0.484401E+01
   0.680000E+03   0.135667E-05   0.212814E-05   0.386149E+00   0.484401E+01
   0.690000E+03   0.134690E-05   0.214129E-05   0.386155E+00   0.484401E+01
   0.700000E+03   0.133149E-05   0.214860E-05   0.386160E+00   0.484401E+01
   0.710000E+03   0.131029E-05   0.214994E-05   0.386166E+00   0.484401E+01
   0.720000E+03   0.128318E-05   0.218216E-05   0.386171E+00   0.484401E+01
   0.730000E+03   0.125005E-05   0.222628E-05   0.386176E+00   0.484401E+01
   0.740000E+03   0.121082E-05   0.226801E-05   0.386181E+00   0.484401E+01
   0.750000E+03   0.116541E-05   0.230729E-05   0.386186E+00   0.484401E+01
   0.760000E+03   0.111378E-05   0.234407E-05   0.386191E+00   0.484401E+01
   0.770000E+03   0.105590E-05   0.237834E-05   0.386196E+00   0.484401E+01
   0.780000E+03   0.991763E-06   0.241005E-05   0.386201E+00   0.484401E+01
   0.790000E+03   0.921394E-06   0.243922E-05   0.386205E+00   0.484401E+01
   0.800000E+03   0.844844E-06   0.246583E-05   0.386210E+00   0.484401E+01
   0.810000E+03   0.762196E-06   0.248989E-05   0.386214E+00   0.484401E+01
   0.820000E+03   0.673570E-06   0.251144E-05   0.386218E+00   0.484401E+01
   0.830000E+03   0.579119E-06   0.253050E-05   0.386222E+00   0.484401E+01
   0.840000E+03   0.479040E-06   0.254711E-05   0.386227E+00   0.484401E+01
   0.850000E+03   0.373565E-06   0.260121E-05   0.386231E+00   0.484401E+01
   0.860000E+03   0.262971E-06   0.267037E-05   0.386235E+00   0.484401E+01
   0.870000E+03   0.147572E-06   0.273937E-05   0.386239E+00   0.484401E+01
   0.880000E+03   0.277237E-07   0.280816E-05   0.386243E+00   0.484401E+01
   0.890000E+03  -0.961808E-07   0.287674E-05   0.386248E+00   0.484401E+01
   0.900000E+03  -0.223713E-06   0.294506E-05   0.386252E+00   0.484401E+01
   0.910000E+03  -0.354413E-06   0.301312E-05   0.386256E+00   0.484401E+01
   0.920000E+03  -0.487790E-06   0.308089E-05   0.386260E+00   0.484401E+01
   0.930000E+03  -0.623329E-06   0.314836E-05   0.386264E+00   0.484401E+01
   0.940000E+03  -0.760498E-06   0.321551E-05   0.386268E+00   0.484401E+01
   0.950000E+03  -0.898745E-06   0.328235E-05   0.386272E+00   0.484401E+01
   0.960000E+03  -0.103751E-05   0.334887E-05   0.386276E+00   0.484401E+01
   0.970000E+03  -0.117623E-05   0.341506E-05   0.386280E+00   0.484401E+01
   0.980000E+03  -0.131433E-05   0.348094E-05   0.386284E+00   0.484401E+01
   0.990000E+03  -0.145126E-05   0.354649E-05   0.386288E+00   0.484401E+01
   0.100000E+04  -0.158646E-05   0.361174E-05   0.386292E+00   0.484401E+01
   0.101000E+04  -0.171938E-05   0.367670E-05   0.386296E+00   0.484401E+01
   0.102000E+04  -0.184950E-05   0.374136E-05   0.386300E+00   0.484401E+01
   0.103000E+04  -0.197631E-05   0.380575E-05   0.386304E+00   0.484401E+01
   0.104000E+04  -0.209931E-05   0.386988E-05   0.386308E+00   0.484401E+01
   0.105000E+04  -0.221802E-05   0.393378E-05   0.386312E+00   0.484401E+01
   0.106000E+04  -0.233201E-05   0.399744E-05   0.386316E+00   0.484401E+01
   0.107000E+04  -0.244083E-05   0.406090E-05   0.386320E+00   0.484401E+01
   0.108000E+04  -0.254408E-05   0.412418E-05   0.386323E+00   0.484401E+01
   0.109000E+04  -0.264138E-05   0.418728E-05   0.386327E+00   0.484401E+01
   0.110000E+04  -0.273235E-05   0.425024E-05   0.386331E+00   0.484401E+01
   0.111000E+04  -0.281667E-05   0.431308E-05   0.386335E+00   0.484401E+01
   0.112000E+04  -0.289402E-05   0.437581E-05   0.386339E+00   0.484401E+01
   0.113000E+04  -0.296408E-05   0.443847E-05   0.386343E+00   0.484401E+01
   0.114000E+04  -0.302659E-05   0.450106E-05   0.386346E+00   0.484401E+01
   0.115000E+04  -0.308128E-05   0.456361E-05   0.386350E+00   0.484401E+01
   0.116000E+04  -0.312792E-05   0.462616E-05   0.386354E+00   0.484401E+01
   0.117000E+04  -0.316630E-05   0.468871E-05   0.386358E+00   0.484401E+01
   0.118000E+04  -0.319622E-05   0.475129E-05   0.386362E+00   0.484401E+01
   0.119000E+04  -0.321750E-05   0.481394E-05   0.386365E+00   0.484401E+01
   0.120000E+04  -0.322999E-05   0.487666E-05   0.386369E+00   0.484401E+01
   0.121000E+04  -0.323357E-05   0.493949E-05   0.386373E+00   0.484401E+01
   0.122000E+04  -0.322811E-05   0.500245E-05   0.386377E+00   0.484401E+01
   0.123000E+04  -0.321352E-05   0.506556E-05   0.386381E+00   0.484401E+01
   0.124000E+04  -0.318974E-05   0.512886E-05   0.386384E+00   0.484401E+01
   0.125000E+04  -0.315671E-05   0.519236E-05   0.386388E+00   0.484401E+01
   0.126000E+04  -0.311440E-05   0.525609E-05   0.386392E+00   0.484401E+01
   0.127000E+04  -0.306278E-05   0.532007E-05   0.386396E+00   0.484401E+01
   0.128000E+04  -0.300186E-05   0.538434E-05   0.386399E+00   0.484401E+01
   0.129000E+04  -0.293164E-05   0.544891E-05   0.386403E+00   0.484401E+01
   0.130000E+04  -0.285215E-05   0.551381E-05   0.386407E+00   0.484401E+01
   0.131000E+04  -0.276342E-05   0.557906E-05   0.386410E+00   0.484401E+01
   0.132000E+04  -0.266549E-05   0.564470E-05   0.386414E+00   0.484401E+01
   0.133000E+04  -0.255842E-05   0.571073E-05   0.386418E+00   0.484401E+01
   0.134000E+04  -0.244224E-05   0.577720E-05   0.386421E+00   0.484401E+01
   0.135000E+04  -0.231703E-05   0.584412E-05   0.386425E+00   0.484401E+01
   0.136000E+04  -0.218283E-05   0.591151E-05   0.386428E+00   0.484401E+01
   0.137000E+04  -0.203971E-05   0.597940E-05   0.386431E+00   0.484401E+01
   0.138000E+04  -0.188773E-05   0.604781E-05   0.386435E+00   0.484401E+01
   0.139000E+04  -0.172694E-05   0.611675E-05   0.386438E+00   0.484401E+01
   0.140000E+04  -0.155740E-05   0.618626E-05   0.386442E+00   0.484401E+01
   0.141000E+04  -0.137917E-05   0.625635E-05   0.386445E+00   0.484401E+01
   0.142000E+04  -0.119228E-05   0.632704E-05   0.386448E+00   0.484401E+01
   0.143000E+04  -0.996804E-06   0.639835E-05   0.386452E+00   0.484401E+01
   0.144000E+04  -0.792772E-06   0.647029E-05   0.386455E+00   0.484401E+01
   0.145000E+04  -0.580232E-06   0.654289E-05   0.386458E+00   0.484401E+01
   0.146000E+04  -0.359224E-06   0.661615E-05   0.386461E+00   0.484401E+01
   0.147000E+04  -0.129789E-06   0.669009E-05   0.386464E+00   0.484401E+01
   0.148000E+04   0.108035E-06   0.676473E-05   0.386467E+00   0.484401E+01
   0.149000E+04   0.354212E-06   0.684009E-05   0.386470E+00   0.484401E+01
   0.150000E+04   0.608703E-06   0.691616E-05   0.386473E+00   0.484401E+01
   0.151000E+04   0.871473E-06   0.699297E-05   0.386476E+00   0.484401E+01
   0.152000E+04   0.114248E-05   0.707052E-05   0.386479E+00   0.484401E+01
   0.153000E+04   0.142170E-05   0.714882E-05   0.386482E+00   0.484401E+01
   0.154000E+04   0.170908E-05   0.722789E-05   0.386485E+00   0.484401E+01
   0.155000E+04   0.200458E-05   0.730774E-05   0.386488E+00   0.484401E+01
   0.156000E+04   0.230817E-05   0.738836E-05   0.386490E+00   0.484401E+01
   0.157000E+04   0.261979E-05   0.746978E-05   0.386493E+00   0.484401E+01
   0.158000E+04   0.293941E-05   0.755199E-05   0.386496E+00   0.484401E+01
   0.159000E+04   0.326696E-05   0.763500E-05   0.386498E+00   0.484401E+01
   0.160000E+04   0.360240E-05   0.771882E-05   0.386501E+00   0.484401E+01
   0.161000E+04   0.394567E-05   0.780345E-05   0.386504E+00   0.484401E+01
   0.162000E+04   0.429671E-05   0.788890E-05   0.386506E+00   0.484401E+01
   0.163000E+04   0.465546E-05   0.797517E-05   0.386509E+00   0.484401E+01
   0.164000E+04   0.502186E-05   0.806226E-05   0.386512E+00   0.484401E+01
   0.165000E+04   0.539583E-05   0.815018E-05   0.386514E+00   0.484401E+01
   0.166000E+04   0.577731E-05   0.823893E-05   0.386517E+00   0.484401E+01
   0.167000E+04   0.616621E-05   0.881172E-05   0.386519E+00   0.484401E+01
   0.168000E+04   0.656248E-05   0.976838E-05   0.386521E+00   0.484401E+01
   0.169000E+04   0.696601E-05   0.107428E-04   0.386524E+00   0.484401E+01
   0.170000E+04   0.737674E-05   0.117347E-04   0.386526E+00   0.484401E+01
   0.171000E+04   0.779458E-05   0.127441E-04   0.386529E+00   0.484401E+01
   0.172000E+04   0.821945E-05   0.137706E-04   0.386531E+00   0.484401E+01
   0.173000E+04   0.865125E-05   0.148142E-04   0.386533E+00   0.484401E+01
   0.174000E+04   0.908991E-05   0.158747E-04   0.386536E+00   0.484401E+01
   0.175000E+04   0.953533E-05   0.169519E-04   0.386538E+00   0.484401E+01
   0.176000E+04   0.998742E-05   0.180455E-04   0.386540E+00   0.484401E+01
   0.177000E+04   0.104461E-04   0.191554E-04   0.386543E+00   0.484401E+01
   0.178000E+04   0.109113E-04   0.202814E-04   0.386545E+00   0.484401E+01
   0.179000E+04   0.113829E-04   0.214233E-04   0.386547E+00   0.484401E+01
   0.180000E+04   0.118607E-04   0.225809E-04   0.386549E+00   0.484401E+01
   0.181000E+04   0.123448E-04   0.237540E-04   0.386552E+00   0.484401E+01
   0.182000E+04   0.128351E-04   0.249424E-04   0.386554E+00   0.484401E+01
   0.183000E+04   0.133313E-04   0.261459E-04   0.386556E+00   0.484401E+01
   0.184000E+04   0.138336E-04   0.273643E-04   0.386558E+00   0.484401E+01
   0.185000E+04   0.143416E-04   0.285974E-04   0.386560E+00   0.484401E+01
   0.186000E+04   0.148554E-04   0.298450E-04   0.386562E+00   0.484401E+01
   0.187000E+04   0.153749E-04   0.311068E-04   0.386564E+00   0.484401E+01
   0.188000E+04   0.158999E-04   0.323826E-04   0.386567E+00   0.484401E+01
   0.189000E+04   0.164303E-04   0.336722E-04   0.386569E+00   0.484401E+01
   0.190000E+04   0.169661E-04   0.349753E-04   0.386571E+00   0.484401E+01
   0.191000E+04   0.175071E-04   0.362918E-04   0.386573E+00   0.484401E+01
   0.192000E+04   0.180532E-04   0.376214E-04   0.386575E+00   0.484401E+01
   0.193000E+04   0.186044E-04   0.389637E-04   0.386577E+00   0.484401E+01
   0.194000E+04   0.191604E-04   0.403185E-04   0.386579E+00   0.484401E+01
   0.195000E+04   0.197212E-04   0.416857E-04   0.386581E+00   0.484401E+01
   0.196000E+04   0.202866E-04   0.430647E-04   0.386583E+00   0.484401E+01
   0.197000E+04   0.208565E-04   0.444555E-04   0.386585E+00   0.484401E+01
   0.198000E+04   0.214308E-04   0.458576E-04   0.386587E+00   0.484401E+01
   0.199000E+04   0.220094E-04   0.472707E-04   0.386588E+00   0.484401E+01
   0.200000E+04   0.225920E-04   0.486946E-04   0.386590E+00   0.484401E+01
   0.201000E+04   0.231787E-04   0.501288E-04   0.386592E+00   0.484401E+01
   0.202000E+04   0.237691E-04   0.515731E-04   0.386594E+00   0.484401E+01
   0.203000E+04   0.243632E-04   0.530270E-04   0.386596E+00   0.484401E+01
   0.204000E+04   0.249608E-04   0.544903E-04   0.386598E+00   0.484401E+01
   0.205000E+04   0.255618E-04   0.559626E-04   0.386600E+00   0.484401E+01
   0.206000E+04   0.261660E-04   0.574435E-04   0.386602E+00   0.484401E+01
   0.207000E+04   0.267732E-04   0.589326E-04   0.386603E+00   0.484401E+01
   0.208000E+04   0.273834E-04   0.604295E-04   0.386605E+00   0.484401E+01
   0.209000E+04   0.279963E-04   0.619340E-04   0.386607E+00   0.484401E+01
   0.210000E+04   0.286118E-04   0.634455E-04   0.386609E+00   0.484401E+01
   0.211000E+04   0.292298E-04   0.649638E-04   0.386610E+00   0.484401E+01
   0.212000E+04   0.298501E-04   0.664883E-04   0.386612E+00   0.484401E+01
   0.213000E+04   0.304725E-04   0.680189E-04   0.386614E+00   0.484401E+01
   0.214000E+04   0.310969E-04   0.695550E-04   0.386615E+00   0.484401E+01
   0.215000E+04   0.317231E-04   0.710963E-04   0.386617E+00   0.484401E+01
   0.216000E+04   0.323511E-04   0.726425E-04   0.386619E+00   0.484401E+01
   0.217000E+04   0.329806E-04   0.741932E-04   0.386620E+00   0.484401E+01
   0.218000E+04   0.336115E-04   0.757480E-04   0.386622E+00   0.484401E+01
   0.219000E+04   0.342438E-04   0.773065E-04   0.386623E+00   0.484401E+01
   0.220000E+04   0.348771E-04   0.788685E-04   0.386625E+00   0.484401E+01
   0.221000E+04   0.355115E-04   0.804336E-04   0.386626E+00   0.484401E+01
   0.222000E+04   0.361468E-04   0.820014E-04   0.386628E+00   0.484401E+01
   0.223000E+04   0.367829E-04   0.835717E-04   0.386629E+00   0.484401E+01
   0.224000E+04   0.374196E-04   0.851441E-04   0.386631E+00   0.484401E+01
   0.225000E+04   0.380569E-04   0.867183E-04   0.386632E+00   0.484401E+01
   0.226000E+04   0.386947E-04   0.882941E-04   0.386634E+00   0.484401E+01
   0.227000E+04   0.393328E-04   0.898712E-04   0.386635E+00   0.484401E+01
   0.228000E+04   0.399711E-04   0.914493E-04   0.386637E+00   0.484401E+01
   0.229000E+04   0.406096E-04   0.930281E-04   0.386638E+00   0.484401E+01
   0.230000E+04   0.412482E-04   0.946075E-04   0.386640E+00   0.484401E+01
   0.231000E+04   0.418868E-04   0.961871E-04   0.386641E+00   0.484401E+01
   0.232000E+04   0.425253E-04   0.977669E-04   0.386642E+00   0.484401E+01
   0.233000E+04   0.431636E-04   0.993465E-04   0.386644E+00   0.484401E+01
   0.234000E+04   0.438018E-04   0.100926E-03   0.386645E+00   0.484401E+01
   0.235000E+04   0.444397E-04   0.102505E-03   0.386646E+00   0.484401E+01
   0.236000E+04   0.450774E-04   0.104083E-03   0.386648E+00   0.484401E+01
   0.237000E+04   0.457147E-04   0.105661E-03   0.386649E+00   0.484401E+01
   0.238000E+04   0.463517E-04   0.107238E-03   0.386650E+00   0.484401E+01
   0.239000E+04   0.469883E-04   0.108813E-03   0.386652E+00   0.484401E+01
   0.240000E+04   0.476244E-04   0.110388E-03   0.386653E+00   0.484401E+01
   0.241000E+04   0.482602E-04   0.111962E-03   0.386654E+00   0.484401E+01
   0.242000E+04   0.488956E-04   0.113535E-03   0.386655E+00   0.484401E+01
   0.243000E+04   0.495306E-04   0.115107E-03   0.386657E+00   0.484401E+01
   0.244000E+04   0.501652E-04   0.116677E-03   0.386658E+00   0.484401E+01
   0.245000E+04   0.507994E-04   0.118247E-03   0.386659E+00   0.484401E+01
   0.246000E+04   0.514333E-04   0.119816E-03   0.386660E+00   0.484401E+01
   0.247000E+04   0.520669E-04   0.121383E-03   0.386661E+00   0.484401E+01
   0.248000E+04   0.527001E-04   0.122950E-03   0.386662E+00   0.484401E+01
   0.249000E+04   0.533331E-04   0.124516E-03   0.386663E+00   0.484401E+01
   0.250000E+04   0.539659E-04   0.126081E-03   0.386664E+00   0.484401E+01
   0.251000E+04   0.545984E-04   0.127646E-03   0.386665E+00   0.484401E+01
   0.252000E+04   0.552307E-04   0.129210E-03   0.386666E+00   0.484401E+01
   0.253000E+04   0.558629E-04   0.130773E-03   0.386667E+00   0.484401E+01
   0.254000E+04   0.564949E-04   0.132336E-03   0.386668E+00   0.484401E+01
   0.255000E+04   0.571268E-04   0.133899E-03   0.386669E+00   0.484401E+01
   0.256000E+04   0.577585E-04   0.135461E-03   0.386670E+00   0.484401E+01
   0.257000E+04   0.583902E-04   0.137023E-03   0.386671E+00   0.484401E+01
   0.258000E+04   0.590217E-04   0.138585E-03   0.386672E+00   0.484401E+01
   0.259000E+04   0.596531E-04   0.140146E-03   0.386673E+00   0.484401E+01
   0.260000E+04   0.602845E-04   0.141708E-03   0.386673E+00   0.484401E+01
   0.261000E+04   0.609157E-04   0.143269E-03   0.386674E+00   0.484401E+01
   0.262000E+04   0.615468E-04   0.144830E-03   0.386675E+00   0.484401E+01
   0.263000E+04   0.621779E-04   0.146391E-03   0.386676E+00   0.484401E+01
   0.264000E+04   0.628088E-04   0.147952E-03   0.386677E+00   0.484401E+01
   0.265000E+04   0.634396E-04   0.149513E-03   0.386678E+00   0.484401E+01
   0.266000E+04   0.640703E-04   0.151074E-03   0.386679E+00   0.484401E+01
   0.267000E+04   0.647008E-04   0.152634E-03   0.386679E+00   0.484401E+01
   0.268000E+04   0.653312E-04   0.154195E-03   0.386680E+00   0.484401E+01
   0.269000E+04   0.659614E-04   0.155755E-03   0.386681E+00   0.484401E+01
   0.270000E+04   0.665914E-04   0.157315E-03   0.386682E+00   0.484401E+01
   0.271000E+04   0.672213E-04   0.158875E-03   0.386683E+00   0.484401E+01
   0.272000E+04   0.678509E-04   0.160434E-03   0.386684E+00   0.484401E+01
   0.273000E+04   0.684803E-04   0.161994E-03   0.386684E+00   0.484401E+01
   0.274000E+04   0.691095E-04   0.163552E-03   0.386685E+00   0.484401E+01
   0.275000E+04   0.697383E-04   0.165111E-03   0.386686E+00   0.484401E+01
   0.276000E+04   0.703669E-04   0.166669E-03   0.386687E+00   0.484401E+01
   0.277000E+04   0.709951E-04   0.168226E-03   0.386687E+00   0.484401E+01
   0.278000E+04   0.716230E-04   0.169783E-03   0.386688E+00   0.484401E+01
   0.279000E+04   0.722505E-04   0.171340E-03   0.386689E+00   0.484401E+01
   0.280000E+04   0.728776E-04   0.172895E-03   0.386690E+00   0.484401E+01
   0.281000E+04   0.735043E-04   0.174451E-03   0.386691E+00   0.484401E+01
   0.282000E+04   0.741305E-04   0.176005E-03   0.386691E+00   0.484401E+01
   0.283000E+04   0.747563E-04   0.177559E-03   0.386692E+00   0.484401E+01
   0.284000E+04   0.753816E-04   0.179112E-03   0.386693E+00   0.484401E+01
   0.285000E+04   0.760064E-04   0.180664E-03   0.386693E+00   0.484401E+01
   0.286000E+04   0.766306E-04   0.182215E-03   0.386694E+00   0.484401E+01
   0.287000E+04   0.772542E-04   0.183765E-03   0.386695E+00   0.484401E+01
   0.288000E+04   0.778773E-04   0.185315E-03   0.386696E+00   0.484401E+01
   0.289000E+04   0.784998E-04   0.186863E-03   0.386696E+00   0.484401E+01
   0.290000E+04   0.791216E-04   0.188411E-03   0.386697E+00   0.484401E+01
   0.291000E+04   0.797428E-04   0.189957E-03   0.386698E+00   0.484401E+01
   0.292000E+04   0.803633E-04   0.191503E-03   0.386698E+00   0.484401E+01
   0.293000E+04   0.809832E-04   0.193047E-03   0.386699E+00   0.484401E+01
   0.294000E+04   0.816023E-04   0.194591E-03   0.386700E+00   0.484401E+01
   0.295000E+04   0.822207E-04   0.196133E-03   0.386700E+00   0.484401E+01
   0.296000E+04   0.828384E-04   0.197674E-03   0.386701E+00   0.484401E+01
   0.297000E+04   0.834553E-04   0.199215E-03   0.386702E+00   0.484401E+01
   0.298000E+04   0.840714E-04   0.200754E-03   0.386702E+00   0.484401E+01
   0.299000E+04   0.846867E-04   0.202292E-03   0.386703E+00   0.484401E+01
   0.300000E+04   0.853012E-04   0.203829E-03   0.386704E+00   0.484401E+01
   0.301000E+04   0.859149E-04   0.205364E-03   0.386704E+00   0.484401E+01
   0.302000E+04   0.865277E-04   0.206899E-03   0.386705E+00   0.484401E+01
   0.303000E+04   0.871396E-04   0.208432E-03   0.386706E+00   0.484401E+01
   0.304000E+04   0.877507E-04   0.209964E-03   0.386706E+00   0.484401E+01
   0.305000E+04   0.883608E-04   0.211495E-03   0.386707E+00   0.484401E+01
   0.306000E+04   0.889700E-04   0.213024E-03   0.386708E+00   0.484401E+01
   0.307000E+04   0.895782E-04   0.214552E-03   0.386708E+00   0.484401E+01
   0.308000E+04   0.901854E-04   0.216078E-03   0.386709E+00   0.484401E+01
   0.309000E+04   0.907917E-04   0.217603E-03   0.386710E+00   0.484401E+01
   0.310000E+04   0.913969E-04   0.219127E-03   0.386710E+00   0.484401E+01
   0.311000E+04   0.920011E-04   0.220649E-03   0.386711E+00   0.484401E+01
   0.312000E+04   0.926042E-04   0.222169E-03   0.386711E+00   0.484401E+01
   0.313000E+04   0.932062E-04   0.223688E-03   0.386712E+00   0.484401E+01
   0.314000E+04   0.938071E-04   0.225205E-03   0.386713E+00   0.484401E+01
   0.315000E+04   0.944068E-04   0.226720E-03   0.386713E+00   0.484401E+01
   0.316000E+04   0.950054E-04   0.228233E-03   0.386714E+00   0.484401E+01
   0.317000E+04   0.956029E-04   0.229744E-03   0.386714E+00   0.484401E+01
   0.318000E+04   0.961991E-04   0.231253E-03   0.386715E+00   0.484401E+01
   0.319000E+04   0.967940E-04   0.232760E-03   0.386716E+00   0.484401E+01
   0.320000E+04   0.973878E-04   0.234265E-03   0.386716E+00   0.484401E+01
   0.321000E+04   0.979802E-04   0.235768E-03   0.386717E+00   0.484401E+01
   0.322000E+04   0.985713E-04   0.237268E-03   0.386717E+00   0.484401E+01
   0.323000E+04   0.991612E-04   0.238766E-03   0.386718E+00   0.484401E+01
   0.324000E+04   0.997496E-04   0.240262E-03   0.386719E+00   0.484401E+01
   0.325000E+04   0.100337E-03   0.241754E-03   0.386719E+00   0.484401E+01
   0.326000E+04   0.100922E-03   0.243245E-03   0.386720E+00   0.484401E+01
   0.327000E+04   0.101507E-03   0.244732E-03   0.386720E+00   0.484401E+01
   0.328000E+04   0.102090E-03   0.246217E-03   0.386721E+00   0.484401E+01
   0.329000E+04   0.102671E-03   0.247699E-03   0.386721E+00   0.484401E+01
   0.330000E+04   0.103251E-03   0.249178E-03   0.386722E+00   0.484401E+01
   0.331000E+04   0.103829E-03   0.250655E-03   0.386723E+00   0.484401E+01
   0.332000E+04   0.104406E-03   0.252128E-03   0.386723E+00   0.484401E+01
   0.333000E+04   0.104982E-03   0.253598E-03   0.386724E+00   0.484401E+01
   0.334000E+04   0.105556E-03   0.255064E-03   0.386724E+00   0.484401E+01
   0.335000E+04   0.106128E-03   0.256528E-03   0.386725E+00   0.484401E+01
   0.336000E+04   0.106698E-03   0.257988E-03   0.386725E+00   0.484401E+01
   0.337000E+04   0.107267E-03   0.259444E-03   0.386726E+00   0.484401E+01
   0.338000E+04   0.107835E-03   0.260897E-03   0.386727E+00   0.484401E+01
   0.339000E+04   0.108401E-03   0.262347E-03   0.386727E+00   0.484401E+01
   0.340000E+04   0.108965E-03   0.263793E-03   0.386728E+00   0.484401E+01
   0.341000E+04   0.109527E-03   0.265235E-03   0.386728E+00   0.484401E+01
   0.342000E+04   0.110088E-03   0.266673E-03   0.386729E+00   0.484401E+01
   0.343000E+04   0.110646E-03   0.268108E-03   0.386729E+00   0.484401E+01
   0.344000E+04   0.111204E-03   0.269538E-03   0.386730E+00   0.484401E+01
   0.345000E+04   0.111759E-03   0.270965E-03   0.386730E+00   0.484401E+01
   0.346000E+04   0.112313E-03   0.272387E-03   0.386731E+00   0.484401E+01
   0.347000E+04   0.112864E-03   0.273806E-03   0.386732E+00   0.484401E+01
   0.348000E+04   0.113414E-03   0.275220E-03   0.386732E+00   0.484401E+01
   0.349000E+04   0.113962E-03   0.276630E-03   0.386733E+00   0.484401E+01
   0.350000E+04   0.114509E-03   0.278035E-03   0.386733E+00   0.484401E+01
   0.351000E+04   0.115053E-03   0.279437E-03   0.386734E+00   0.484401E+01
   0.352000E+04   0.115595E-03   0.280833E-03   0.386734E+00   0.484401E+01
   0.353000E+04   0.116136E-03   0.282226E-03   0.386735E+00   0.484401E+01
   0.354000E+04   0.116675E-03   0.283613E-03   0.386735E+00   0.484401E+01
   0.355000E+04   0.117211E-03   0.284996E-03   0.386736E+00   0.484401E+01
   0.356000E+04   0.117746E-03   0.286375E-03   0.386737E+00   0.484401E+01
   0.357000E+04   0.118279E-03   0.287748E-03   0.386737E+00   0.484401E+01
   0.358000E+04   0.118810E-03   0.289117E-03   0.386738E+00   0.484401E+01
   0.359000E+04   0.119339E-03   0.290481E-03   0.386738E+00   0.484401E+01
   0.360000E+04   0.119865E-03   0.291840E-03   0.386739E+00   0.484401E+01
   0.361000E+04   0.120390E-03   0.293194E-03   0.386739E+00   0.484401E+01
   0.362000E+04   0.120913E-03   0.294543E-03   0.386740E+00   0.484401E+01
   0.363000E+04   0.121433E-03   0.295886E-03   0.386740E+00   0.484401E+01
   0.364000E+04   0.121952E-03   0.297225E-03   0.386741E+00   0.484401E+01
   0.365000E+04   0.122469E-03   0.298558E-03   0.386741E+00   0.484401E+01
   0.366000E+04   0.122983E-03   0.299887E-03   0.386742E+00   0.484401E+01
   0.367000E+04   0.123495E-03   0.301209E-03   0.386742E+00   0.484401E+01
   0.368000E+04   0.124005E-03   0.302527E-03   0.386743E+00   0.484401E+01
   0.369000E+04   0.124513E-03   0.303839E-03   0.386743E+00   0.484401E+01
   0.370000E+04   0.125019E-03   0.305145E-03   0.386744E+00   0.484401E+01
   0.371000E+04   0.125523E-03   0.306446E-03   0.386744E+00   0.484401E+01
   0.372000E+04   0.126025E-03   0.307741E-03   0.386745E+00   0.484401E+01
   0.373000E+04   0.126524E-03   0.309031E-03   0.386745E+00   0.484401E+01
   0.374000E+04   0.127021E-03   0.310315E-03   0.386746E+00   0.484401E+01
   0.375000E+04   0.127516E-03   0.311594E-03   0.386746E+00   0.484401E+01
   0.376000E+04   0.128009E-03   0.312866E-03   0.386747E+00   0.484401E+01
   0.377000E+04   0.128500E-03   0.314133E-03   0.386747E+00   0.484401E+01
   0.378000E+04   0.128988E-03   0.315394E-03   0.386748E+00   0.484401E+01
   0.379000E+04   0.129474E-03   0.316649E-03   0.386748E+00   0.484401E+01
   0.380000E+04   0.129958E-03   0.317898E-03   0.386749E+00   0.484401E+01
   0.381000E+04   0.130439E-03   0.319141E-03   0.386749E+00   0.484401E+01
   0.382000E+04   0.130919E-03   0.320378E-03   0.386750E+00   0.484401E+01
   0.383000E+04   0.131396E-03   0.321609E-03   0.386750E+00   0.484401E+01
   0.384000E+04   0.131870E-03   0.322834E-03   0.386751E+00   0.484401E+01
   0.385000E+04   0.132343E-03   0.324053E-03   0.386751E+00   0.484401E+01
   0.386000E+04   0.132813E-03   0.325265E-03   0.386752E+00   0.484401E+01
   0.387000E+04   0.133281E-03   0.326472E-03   0.386752E+00   0.484401E+01
   0.388000E+04   0.133746E-03   0.327672E-03   0.386753E+00   0.484401E+01
   0.389000E+04   0.134209E-03   0.328866E-03   0.386753E+00   0.484401E+01
   0.390000E+04   0.134670E-03   0.330054E-03   0.386754E+00   0.484401E+01
   0.391000E+04   0.135129E-03   0.331235E-03   0.386754E+00   0.484401E+01
   0.392000E+04   0.135585E-03   0.332410E-03   0.386755E+00   0.484401E+01
   0.393000E+04   0.136038E-03   0.333579E-03   0.386755E+00   0.484401E+01