title="breakthrough data set at     5 wells"
variables="time(days)","cavg","cpk","upk","zswi"
zone i=     1295
   0.100000E+02   0.231072E-09   0.390397E-09   0.465100E+00   0.483664E+01
   0.200000E+02   0.589915E-09   0.104214E-08   0.380497E+00   0.481770E+01
   0.300000E+02   0.130069E-08   0.232885E-08   0.380061E+00   0.481770E+01
   0.400000E+02   0.257558E-08   0.462901E-08   0.380030E+00   0.481770E+01
   0.500000E+02   0.470301E-08   0.845568E-08   0.380025E+00   0.481770E+01
   0.600000E+02   0.806071E-08   0.144779E-07   0.380032E+00   0.481770E+01
   0.700000E+02   0.131267E-07   0.235374E-07   0.380038E+00   0.481770E+01
   0.800000E+02   0.204782E-07   0.366443E-07   0.380062E+00   0.481770E+01
   0.900000E+02   0.307970E-07   0.549804E-07   0.380089E+00   0.481770E+01
   0.100000E+03   0.448617E-07   0.798818E-07   0.380119E+00   0.481770E+01
   0.110000E+03   0.635378E-07   0.112814E-06   0.380149E+00   0.481770E+01
   0.120000E+03   0.877618E-07   0.155341E-06   0.380181E+00   0.481770E+01
   0.130000E+03   0.118523E-06   0.209084E-06   0.380212E+00   0.481770E+01
   0.140000E+03   0.156841E-06   0.275684E-06   0.380243E+00   0.481770E+01
   0.150000E+03   0.203678E-06   0.356672E-06   0.380246E+00   0.481770E+01
   0.160000E+03   0.260116E-06   0.453682E-06   0.380274E+00   0.481770E+01
   0.170000E+03   0.327141E-06   0.568171E-06   0.380302E+00   0.481770E+01
   0.180000E+03   0.405683E-06   0.701458E-06   0.380331E+00   0.481770E+01
   0.190000E+03   0.496601E-06   0.854706E-06   0.380359E+00   0.481770E+01
   0.200000E+03   0.600669E-06   0.102889E-05   0.380388E+00   0.481770E+01
   0.210000E+03   0.718663E-06   0.122490E-05   0.380443E+00   0.481770E+01
   0.220000E+03   0.850963E-06   0.144314E-05   0.380445E+00   0.481770E+01
   0.230000E+03   0.998144E-06   0.168409E-05   0.380472E+00   0.481770E+01
   0.240000E+03   0.116058E-05   0.194796E-05   0.380499E+00   0.481770E+01
   0.250000E+03   0.133852E-05   0.223475E-05   0.380525E+00   0.481770E+01
   0.260000E+03   0.153214E-05   0.254432E-05   0.380550E+00   0.481770E+01
   0.270000E+03   0.174149E-05   0.287633E-05   0.380575E+00   0.481770E+01
   0.280000E+03   0.196652E-05   0.323030E-05   0.380599E+00   0.481770E+01
   0.290000E+03   0.220710E-05   0.360562E-05   0.380622E+00   0.481770E+01
   0.300000E+03   0.246303E-05   0.400156E-05   0.380645E+00   0.481770E+01
   0.310000E+03   0.273400E-05   0.441728E-05   0.380667E+00   0.481770E+01
   0.320000E+03   0.301966E-05   0.485185E-05   0.380689E+00   0.481770E+01
   0.330000E+03   0.331958E-05   0.530428E-05   0.380710E+00   0.481770E+01
   0.340000E+03   0.363328E-05   0.577351E-05   0.380731E+00   0.481770E+01
   0.350000E+03   0.396025E-05   0.625845E-05   0.380750E+00   0.481770E+01
   0.360000E+03   0.429991E-05   0.675796E-05   0.380769E+00   0.481770E+01
   0.370000E+03   0.465167E-05   0.727091E-05   0.380788E+00   0.481770E+01
   0.380000E+03   0.501491E-05   0.779613E-05   0.380805E+00   0.481770E+01
   0.390000E+03   0.538897E-05   0.833247E-05   0.380821E+00   0.481770E+01
   0.400000E+03   0.577321E-05   0.887880E-05   0.380837E+00   0.481770E+01
   0.410000E+03   0.616694E-05   0.943398E-05   0.380852E+00   0.481770E+01
   0.420000E+03   0.656950E-05   0.999692E-05   0.380866E+00   0.481770E+01
   0.430000E+03   0.698021E-05   0.105666E-04   0.380879E+00   0.481770E+01
   0.440000E+03   0.739839E-05   0.111418E-04   0.380892E+00   0.481770E+01
   0.450000E+03   0.782338E-05   0.117218E-04   0.380904E+00   0.481770E+01
   0.460000E+03   0.825452E-05   0.123054E-04   0.380915E+00   0.481770E+01
   0.470000E+03   0.869116E-05   0.128918E-04   0.380925E+00   0.481770E+01
   0.480000E+03   0.913268E-05   0.134801E-04   0.380935E+00   0.481770E+01
   0.490000E+03   0.957845E-05   0.140696E-04   0.380944E+00   0.481770E+01
   0.500000E+03   0.100279E-04   0.146593E-04   0.380952E+00   0.481770E+01
   0.510000E+03   0.104804E-04   0.152486E-04   0.380959E+00   0.481770E+01
   0.520000E+03   0.109355E-04   0.158367E-04   0.380966E+00   0.481770E+01
   0.530000E+03   0.113925E-04   0.164231E-04   0.380973E+00   0.481770E+01
   0.540000E+03   0.118510E-04   0.170072E-04   0.380979E+00   0.481770E+01
   0.550000E+03   0.123105E-04   0.175883E-04   0.380984E+00   0.481770E+01
   0.560000E+03   0.127705E-04   0.181659E-04   0.380989E+00   0.481770E+01
   0.570000E+03   0.132306E-04   0.187396E-04   0.380993E+00   0.481770E+01
   0.580000E+03   0.136903E-04   0.193089E-04   0.380997E+00   0.481770E+01
   0.590000E+03   0.141492E-04   0.198734E-04   0.381000E+00   0.481770E+01
   0.600000E+03   0.146070E-04   0.204326E-04   0.381003E+00   0.481770E+01
   0.610000E+03   0.150631E-04   0.209862E-04   0.381006E+00   0.481770E+01
   0.620000E+03   0.155174E-04   0.215339E-04   0.381008E+00   0.481770E+01
   0.630000E+03   0.159695E-04   0.220754E-04   0.381009E+00   0.481770E+01
   0.640000E+03   0.164190E-04   0.226103E-04   0.381010E+00   0.481770E+01
   0.650000E+03   0.168656E-04   0.231384E-04   0.381011E+00   0.481770E+01
   0.660000E+03   0.173091E-04   0.236594E-04   0.381011E+00   0.481770E+01
   0.670000E+03   0.177491E-04   0.241730E-04   0.381011E+00   0.481770E+01
   0.680000E+03   0.181854E-04   0.246792E-04   0.381011E+00   0.481770E+01
   0.690000E+03   0.186177E-04   0.251776E-04   0.381010E+00   0.481770E+01
   0.700000E+03   0.190458E-04   0.256681E-04   0.381009E+00   0.481770E+01
   0.710000E+03   0.194695E-04   0.261505E-04   0.381008E+00   0.481770E+01
   0.720000E+03   0.198885E-04   0.266246E-04   0.381006E+00   0.481770E+01
   0.730000E+03   0.203026E-04   0.270903E-04   0.381005E+00   0.481770E+01
   0.740000E+03   0.207116E-04   0.275476E-04   0.381003E+00   0.481770E+01
   0.750000E+03   0.211154E-04   0.279962E-04   0.381001E+00   0.481770E+01
   0.760000E+03   0.215138E-04   0.284361E-04   0.380999E+00   0.481770E+01
   0.770000E+03   0.219067E-04   0.288673E-04   0.380996E+00   0.481770E+01
   0.780000E+03   0.222938E-04   0.292898E-04   0.380993E+00   0.481770E+01
   0.790000E+03   0.226752E-04   0.297034E-04   0.380991E+00   0.481770E+01
   0.800000E+03   0.230507E-04   0.301083E-04   0.380988E+00   0.481770E+01
   0.810000E+03   0.234202E-04   0.305045E-04   0.380985E+00   0.481770E+01
   0.820000E+03   0.237838E-04   0.308920E-04   0.380982E+00   0.481770E+01
   0.830000E+03   0.241413E-04   0.312710E-04   0.380979E+00   0.481770E+01
   0.840000E+03   0.244928E-04   0.316414E-04   0.380975E+00   0.481770E+01
   0.850000E+03   0.248382E-04   0.320035E-04   0.380972E+00   0.481770E+01
   0.860000E+03   0.251777E-04   0.323573E-04   0.380969E+00   0.481770E+01
   0.870000E+03   0.255112E-04   0.327031E-04   0.380966E+00   0.481770E+01
   0.880000E+03   0.258387E-04   0.330410E-04   0.380962E+00   0.481770E+01
   0.890000E+03   0.261604E-04   0.333712E-04   0.380959E+00   0.481770E+01
   0.900000E+03   0.264764E-04   0.336940E-04   0.380956E+00   0.481770E+01
   0.910000E+03   0.267866E-04   0.340094E-04   0.380952E+00   0.481770E+01
   0.920000E+03   0.270912E-04   0.343178E-04   0.380949E+00   0.481770E+01
   0.930000E+03   0.273904E-04   0.346194E-04   0.380946E+00   0.481770E+01
   0.940000E+03   0.276841E-04   0.349145E-04   0.380943E+00   0.481770E+01
   0.950000E+03   0.279726E-04   0.352032E-04   0.380939E+00   0.481770E+01
   0.960000E+03   0.282560E-04   0.354858E-04   0.380936E+00   0.481770E+01
   0.970000E+03   0.285343E-04   0.357626E-04   0.380933E+00   0.481770E+01
   0.980000E+03   0.288076E-04   0.360338E-04   0.380931E+00   0.481770E+01
   0.990000E+03   0.290763E-04   0.362998E-04   0.380928E+00   0.481770E+01
   0.100000E+04   0.293402E-04   0.365606E-04   0.380925E+00   0.481770E+01
   0.101000E+04   0.295997E-04   0.368167E-04   0.380923E+00   0.481770E+01
   0.102000E+04   0.298547E-04   0.370682E-04   0.380920E+00   0.481770E+01
   0.103000E+04   0.301055E-04   0.373155E-04   0.380918E+00   0.481770E+01
   0.104000E+04   0.303522E-04   0.375586E-04   0.380916E+00   0.481770E+01
   0.105000E+04   0.305949E-04   0.377979E-04   0.380913E+00   0.481770E+01
   0.106000E+04   0.308338E-04   0.380337E-04   0.380911E+00   0.481770E+01
   0.107000E+04   0.310689E-04   0.382660E-04   0.380909E+00   0.481770E+01
   0.108000E+04   0.313005E-04   0.384953E-04   0.380907E+00   0.481770E+01
   0.109000E+04   0.315285E-04   0.387215E-04   0.380906E+00   0.481770E+01
   0.110000E+04   0.317533E-04   0.389450E-04   0.380904E+00   0.481770E+01
   0.111000E+04   0.319748E-04   0.391660E-04   0.380902E+00   0.481770E+01
   0.112000E+04   0.321933E-04   0.393846E-04   0.380901E+00   0.481770E+01
   0.113000E+04   0.324088E-04   0.396009E-04   0.380900E+00   0.481770E+01
   0.114000E+04   0.326214E-04   0.398152E-04   0.380898E+00   0.481770E+01
   0.115000E+04   0.328312E-04   0.400277E-04   0.380897E+00   0.481770E+01
   0.116000E+04   0.330384E-04   0.402383E-04   0.380896E+00   0.481770E+01
   0.117000E+04   0.332430E-04   0.404474E-04   0.380895E+00   0.481770E+01
   0.118000E+04   0.334452E-04   0.406549E-04   0.380894E+00   0.481770E+01
   0.119000E+04   0.336450E-04   0.408611E-04   0.380893E+00   0.481770E+01
   0.120000E+04   0.338426E-04   0.410660E-04   0.380892E+00   0.481770E+01
   0.121000E+04   0.340379E-04   0.412698E-04   0.380891E+00   0.481770E+01
   0.122000E+04   0.342312E-04   0.414725E-04   0.380890E+00   0.481770E+01
   0.123000E+04   0.344225E-04   0.416743E-04   0.380889E+00   0.481770E+01
   0.124000E+04   0.346118E-04   0.418752E-04   0.380888E+00   0.481770E+01
   0.125000E+04   0.347993E-04   0.420753E-04   0.380887E+00   0.481770E+01
   0.126000E+04   0.349851E-04   0.422748E-04   0.380887E+00   0.481770E+01
   0.127000E+04   0.351692E-04   0.424736E-04   0.380886E+00   0.481770E+01
   0.128000E+04   0.353518E-04   0.426719E-04   0.380885E+00   0.481770E+01
   0.129000E+04   0.355328E-04   0.428698E-04   0.380884E+00   0.481770E+01
   0.130000E+04   0.357125E-04   0.430673E-04   0.380884E+00   0.481770E+01
   0.131000E+04   0.358910E-04   0.432645E-04   0.380883E+00   0.481770E+01
   0.132000E+04   0.360683E-04   0.434615E-04   0.380882E+00   0.481770E+01
   0.133000E+04   0.362445E-04   0.436583E-04   0.380882E+00   0.481770E+01
   0.134000E+04   0.364198E-04   0.438551E-04   0.380881E+00   0.481770E+01
   0.135000E+04   0.365944E-04   0.440520E-04   0.380880E+00   0.481770E+01
   0.136000E+04   0.367682E-04   0.442489E-04   0.380880E+00   0.481770E+01
   0.137000E+04   0.369415E-04   0.444460E-04   0.380879E+00   0.481770E+01
   0.138000E+04   0.371144E-04   0.446433E-04   0.380878E+00   0.481770E+01
   0.139000E+04   0.372871E-04   0.448409E-04   0.380878E+00   0.481770E+01
   0.140000E+04   0.374597E-04   0.450389E-04   0.380877E+00   0.481770E+01
   0.141000E+04   0.376322E-04   0.452373E-04   0.380877E+00   0.481770E+01
   0.142000E+04   0.378050E-04   0.454362E-04   0.380877E+00   0.481770E+01
   0.143000E+04   0.379781E-04   0.456356E-04   0.380876E+00   0.481770E+01
   0.144000E+04   0.381516E-04   0.458356E-04   0.380876E+00   0.481770E+01
   0.145000E+04   0.383258E-04   0.460362E-04   0.380876E+00   0.481770E+01
   0.146000E+04   0.385007E-04   0.462375E-04   0.380875E+00   0.481770E+01
   0.147000E+04   0.386765E-04   0.464395E-04   0.380875E+00   0.481770E+01
   0.148000E+04   0.388533E-04   0.466423E-04   0.380875E+00   0.481770E+01
   0.149000E+04   0.390313E-04   0.468457E-04   0.380875E+00   0.481770E+01
   0.150000E+04   0.392105E-04   0.470500E-04   0.380875E+00   0.481770E+01
   0.151000E+04   0.393910E-04   0.472550E-04   0.380875E+00   0.481770E+01
   0.152000E+04   0.395731E-04   0.475016E-04   0.380875E+00   0.481770E+01
   0.153000E+04   0.397567E-04   0.477999E-04   0.380875E+00   0.481770E+01
   0.154000E+04   0.399420E-04   0.481027E-04   0.380875E+00   0.481770E+01
   0.155000E+04   0.401291E-04   0.484101E-04   0.380875E+00   0.481770E+01
   0.156000E+04   0.403180E-04   0.487219E-04   0.380875E+00   0.481770E+01
   0.157000E+04   0.405088E-04   0.490384E-04   0.380875E+00   0.481770E+01
   0.158000E+04   0.407015E-04   0.493593E-04   0.380876E+00   0.481770E+01
   0.159000E+04   0.408963E-04   0.496847E-04   0.380876E+00   0.481770E+01
   0.160000E+04   0.410931E-04   0.500147E-04   0.380876E+00   0.481770E+01
   0.161000E+04   0.412921E-04   0.503490E-04   0.380876E+00   0.481770E+01
   0.162000E+04   0.414932E-04   0.506878E-04   0.380877E+00   0.481770E+01
   0.163000E+04   0.416965E-04   0.510310E-04   0.380877E+00   0.481770E+01
   0.164000E+04   0.419021E-04   0.513784E-04   0.380877E+00   0.481770E+01
   0.165000E+04   0.421098E-04   0.517301E-04   0.380878E+00   0.481770E+01
   0.166000E+04   0.423197E-04   0.520860E-04   0.380878E+00   0.481770E+01
   0.167000E+04   0.425319E-04   0.524459E-04   0.380879E+00   0.481770E+01
   0.168000E+04   0.427463E-04   0.528098E-04   0.380879E+00   0.481770E+01
   0.169000E+04   0.429629E-04   0.531775E-04   0.380879E+00   0.481770E+01
   0.170000E+04   0.431816E-04   0.535490E-04   0.380881E+00   0.481770E+01
   0.171000E+04   0.434025E-04   0.539241E-04   0.380881E+00   0.481770E+01
   0.172000E+04   0.436255E-04   0.543027E-04   0.380880E+00   0.481770E+01
   0.173000E+04   0.438508E-04   0.546850E-04   0.380882E+00   0.481770E+01
   0.174000E+04   0.440778E-04   0.550702E-04   0.380883E+00   0.481770E+01
   0.175000E+04   0.443067E-04   0.554583E-04   0.380882E+00   0.481770E+01
   0.176000E+04   0.445378E-04   0.558497E-04   0.380884E+00   0.481770E+01
   0.177000E+04   0.447704E-04   0.562434E-04   0.380885E+00   0.481770E+01
   0.178000E+04   0.450048E-04   0.566396E-04   0.380884E+00   0.481770E+01
   0.179000E+04   0.452411E-04   0.570385E-04   0.380886E+00   0.481770E+01
   0.180000E+04   0.454787E-04   0.574391E-04   0.380887E+00   0.481770E+01
   0.181000E+04   0.457178E-04   0.578417E-04   0.380886E+00   0.481770E+01
   0.182000E+04   0.459586E-04   0.582463E-04   0.380889E+00   0.481770E+01
   0.183000E+04   0.462004E-04   0.586521E-04   0.380889E+00   0.481770E+01
   0.184000E+04   0.464435E-04   0.590593E-04   0.380889E+00   0.481770E+01
   0.185000E+04   0.466877E-04   0.594677E-04   0.380889E+00   0.481770E+01
   0.186000E+04   0.469332E-04   0.598773E-04   0.380890E+00   0.481770E+01
   0.187000E+04   0.471796E-04   0.602877E-04   0.380894E+00   0.481770E+01
   0.188000E+04   0.474270E-04   0.606988E-04   0.380896E+00   0.481770E+01
   0.189000E+04   0.476752E-04   0.611104E-04   0.380895E+00   0.481770E+01
   0.190000E+04   0.479242E-04   0.615223E-04   0.380892E+00   0.481770E+01
   0.191000E+04   0.481738E-04   0.619343E-04   0.380892E+00   0.481770E+01
   0.192000E+04   0.484240E-04   0.623463E-04   0.380894E+00   0.481770E+01
   0.193000E+04   0.486750E-04   0.627584E-04   0.380898E+00   0.481770E+01
   0.194000E+04   0.489265E-04   0.631703E-04   0.380901E+00   0.481770E+01
   0.195000E+04   0.491787E-04   0.635820E-04   0.380902E+00   0.481770E+01
   0.196000E+04   0.494313E-04   0.639934E-04   0.380901E+00   0.481770E+01
   0.197000E+04   0.496844E-04   0.644043E-04   0.380899E+00   0.481770E+01
   0.198000E+04   0.499379E-04   0.648147E-04   0.380900E+00   0.481770E+01
   0.199000E+04   0.501920E-04   0.652247E-04   0.380903E+00   0.481770E+01
   0.200000E+04   0.504465E-04   0.656342E-04   0.380907E+00   0.481770E+01
   0.201000E+04   0.507016E-04   0.660431E-04   0.380909E+00   0.481770E+01
   0.202000E+04   0.509571E-04   0.664516E-04   0.380908E+00   0.481770E+01
   0.203000E+04   0.512131E-04   0.668594E-04   0.380906E+00   0.481770E+01
   0.204000E+04   0.514695E-04   0.672666E-04   0.380905E+00   0.481770E+01
   0.205000E+04   0.517265E-04   0.676733E-04   0.380908E+00   0.481770E+01
   0.206000E+04   0.519840E-04   0.680795E-04   0.380911E+00   0.481770E+01
   0.207000E+04   0.522422E-04   0.684854E-04   0.380914E+00   0.481770E+01
   0.208000E+04   0.525010E-04   0.688909E-04   0.380914E+00   0.481770E+01
   0.209000E+04   0.527604E-04   0.692960E-04   0.380913E+00   0.481770E+01
   0.210000E+04   0.530205E-04   0.697007E-04   0.380911E+00   0.481770E+01
   0.211000E+04   0.532813E-04   0.701053E-04   0.380912E+00   0.481770E+01
   0.212000E+04   0.535428E-04   0.705097E-04   0.380916E+00   0.481770E+01
   0.213000E+04   0.538053E-04   0.709141E-04   0.380919E+00   0.481770E+01
   0.214000E+04   0.540687E-04   0.713186E-04   0.380921E+00   0.481770E+01
   0.215000E+04   0.543329E-04   0.717231E-04   0.380920E+00   0.481770E+01
   0.216000E+04   0.545981E-04   0.721278E-04   0.380918E+00   0.481770E+01
   0.217000E+04   0.548642E-04   0.725327E-04   0.380917E+00   0.481770E+01
   0.218000E+04   0.551313E-04   0.729380E-04   0.380920E+00   0.481770E+01
   0.219000E+04   0.553996E-04   0.733437E-04   0.380923E+00   0.481770E+01
   0.220000E+04   0.556691E-04   0.737501E-04   0.380926E+00   0.481770E+01
   0.221000E+04   0.559398E-04   0.741571E-04   0.380926E+00   0.481770E+01
   0.222000E+04   0.562117E-04   0.745647E-04   0.380925E+00   0.481770E+01
   0.223000E+04   0.564848E-04   0.749731E-04   0.380923E+00   0.481770E+01
   0.224000E+04   0.567591E-04   0.753823E-04   0.380924E+00   0.481770E+01
   0.225000E+04   0.570348E-04   0.757924E-04   0.380927E+00   0.481770E+01
   0.226000E+04   0.573119E-04   0.762036E-04   0.380930E+00   0.481770E+01
   0.227000E+04   0.575905E-04   0.766159E-04   0.380932E+00   0.481770E+01
   0.228000E+04   0.578705E-04   0.770292E-04   0.380932E+00   0.481770E+01
   0.229000E+04   0.581519E-04   0.774437E-04   0.380930E+00   0.481770E+01
   0.230000E+04   0.584346E-04   0.778594E-04   0.380929E+00   0.481770E+01
   0.231000E+04   0.587189E-04   0.782762E-04   0.380931E+00   0.481770E+01
   0.232000E+04   0.590046E-04   0.786944E-04   0.380934E+00   0.481770E+01
   0.233000E+04   0.592920E-04   0.791140E-04   0.380937E+00   0.481770E+01
   0.234000E+04   0.595809E-04   0.795349E-04   0.380939E+00   0.481770E+01
   0.235000E+04   0.598713E-04   0.799572E-04   0.380937E+00   0.481770E+01
   0.236000E+04   0.601631E-04   0.803808E-04   0.380935E+00   0.481770E+01
   0.237000E+04   0.604564E-04   0.808057E-04   0.380937E+00   0.481770E+01
   0.238000E+04   0.607511E-04   0.812323E-04   0.380938E+00   0.481770E+01
   0.239000E+04   0.610473E-04   0.816603E-04   0.380939E+00   0.481770E+01
   0.240000E+04   0.613449E-04   0.820896E-04   0.380940E+00   0.481770E+01
   0.241000E+04   0.616440E-04   0.825204E-04   0.380941E+00   0.481770E+01
   0.242000E+04   0.619445E-04   0.829524E-04   0.380943E+00   0.481770E+01
   0.243000E+04   0.622464E-04   0.833857E-04   0.380943E+00   0.481770E+01
   0.244000E+04   0.625495E-04   0.838201E-04   0.380943E+00   0.481770E+01
   0.245000E+04   0.628539E-04   0.842556E-04   0.380943E+00   0.481770E+01
   0.246000E+04   0.631595E-04   0.846923E-04   0.380944E+00   0.481770E+01
   0.247000E+04   0.634664E-04   0.851300E-04   0.380946E+00   0.481770E+01
   0.248000E+04   0.637745E-04   0.855684E-04   0.380947E+00   0.481770E+01
   0.249000E+04   0.640837E-04   0.860076E-04   0.380945E+00   0.481770E+01
   0.250000E+04   0.643939E-04   0.864476E-04   0.380942E+00   0.481770E+01
   0.251000E+04   0.647051E-04   0.868884E-04   0.380943E+00   0.481770E+01
   0.252000E+04   0.650174E-04   0.873301E-04   0.380946E+00   0.481770E+01
   0.253000E+04   0.653308E-04   0.877727E-04   0.380950E+00   0.481770E+01
   0.254000E+04   0.656453E-04   0.882161E-04   0.380951E+00   0.481770E+01
   0.255000E+04   0.659607E-04   0.886603E-04   0.380950E+00   0.481770E+01
   0.256000E+04   0.662769E-04   0.891050E-04   0.380948E+00   0.481770E+01
   0.257000E+04   0.665938E-04   0.895502E-04   0.380948E+00   0.481770E+01
   0.258000E+04   0.669115E-04   0.899959E-04   0.380949E+00   0.481770E+01
   0.259000E+04   0.672299E-04   0.904427E-04   0.380952E+00   0.481770E+01
   0.260000E+04   0.675491E-04   0.908896E-04   0.380956E+00   0.481770E+01
   0.261000E+04   0.678689E-04   0.913367E-04   0.380957E+00   0.481770E+01
   0.262000E+04   0.681890E-04   0.917839E-04   0.380955E+00   0.481770E+01
   0.263000E+04   0.685095E-04   0.922311E-04   0.380953E+00   0.481770E+01
   0.264000E+04   0.688302E-04   0.926783E-04   0.380954E+00   0.481770E+01
   0.265000E+04   0.691513E-04   0.931254E-04   0.380957E+00   0.481770E+01
   0.266000E+04   0.694726E-04   0.935725E-04   0.380960E+00   0.481770E+01
   0.267000E+04   0.697941E-04   0.940194E-04   0.380963E+00   0.481770E+01
   0.268000E+04   0.701157E-04   0.944658E-04   0.380962E+00   0.481770E+01
   0.269000E+04   0.704371E-04   0.949118E-04   0.380960E+00   0.481770E+01
   0.270000E+04   0.707582E-04   0.953570E-04   0.380960E+00   0.481770E+01
   0.271000E+04   0.710793E-04   0.958024E-04   0.380962E+00   0.481770E+01
   0.272000E+04   0.714002E-04   0.962471E-04   0.380962E+00   0.481770E+01
   0.273000E+04   0.717208E-04   0.966910E-04   0.380963E+00   0.481770E+01
   0.274000E+04   0.720410E-04   0.971340E-04   0.380964E+00   0.481770E+01
   0.275000E+04   0.723607E-04   0.975759E-04   0.380966E+00   0.481770E+01
   0.276000E+04   0.726798E-04   0.980168E-04   0.380967E+00   0.481770E+01
   0.277000E+04   0.729983E-04   0.984563E-04   0.380966E+00   0.481770E+01
   0.278000E+04   0.733160E-04   0.988945E-04   0.380965E+00   0.481770E+01
   0.279000E+04   0.736330E-04   0.993311E-04   0.380967E+00   0.481770E+01
   0.280000E+04   0.739491E-04   0.997662E-04   0.380968E+00   0.481770E+01
   0.281000E+04   0.742644E-04   0.100199E-03   0.380970E+00   0.481770E+01
   0.282000E+04   0.745786E-04   0.100630E-03   0.380968E+00   0.481770E+01
   0.283000E+04   0.748917E-04   0.101059E-03   0.380965E+00   0.481770E+01
   0.284000E+04   0.752038E-04   0.101486E-03   0.380964E+00   0.481770E+01
   0.285000E+04   0.755149E-04   0.101911E-03   0.380967E+00   0.481770E+01
   0.286000E+04   0.758251E-04   0.102335E-03   0.380971E+00   0.481770E+01
   0.287000E+04   0.761344E-04   0.102757E-03   0.380973E+00   0.481770E+01
   0.288000E+04   0.764426E-04   0.103177E-03   0.380972E+00   0.481770E+01
   0.289000E+04   0.767497E-04   0.103872E-03   0.380970E+00   0.481770E+01
   0.290000E+04   0.770557E-04   0.104610E-03   0.380969E+00   0.481770E+01
   0.291000E+04   0.773606E-04   0.105346E-03   0.380970E+00   0.481770E+01
   0.292000E+04   0.776646E-04   0.106080E-03   0.380973E+00   0.481770E+01
   0.293000E+04   0.779676E-04   0.106811E-03   0.380976E+00   0.481770E+01
   0.294000E+04   0.782697E-04   0.107540E-03   0.380978E+00   0.481770E+01
   0.295000E+04   0.785707E-04   0.108267E-03   0.380976E+00   0.481770E+01
   0.296000E+04   0.788707E-04   0.108992E-03   0.380974E+00   0.481770E+01
   0.297000E+04   0.791696E-04   0.109714E-03   0.380973E+00   0.481770E+01
   0.298000E+04   0.794676E-04   0.110435E-03   0.380975E+00   0.481770E+01
   0.299000E+04   0.797647E-04   0.111153E-03   0.380978E+00   0.481770E+01
   0.300000E+04   0.800611E-04   0.111870E-03   0.380981E+00   0.481770E+01
   0.301000E+04   0.803567E-04   0.112585E-03   0.380982E+00   0.481770E+01
   0.302000E+04   0.806514E-04   0.113299E-03   0.380980E+00   0.481770E+01
   0.303000E+04   0.809452E-04   0.114011E-03   0.380977E+00   0.481770E+01
   0.304000E+04   0.812382E-04   0.114721E-03   0.380977E+00   0.481770E+01
   0.305000E+04   0.815305E-04   0.115430E-03   0.380979E+00   0.481770E+01
   0.306000E+04   0.818222E-04   0.116139E-03   0.380982E+00   0.481770E+01
   0.307000E+04   0.821134E-04   0.116846E-03   0.380985E+00   0.481770E+01
   0.308000E+04   0.824040E-04   0.117552E-03   0.380985E+00   0.481770E+01
   0.309000E+04   0.826940E-04   0.118257E-03   0.380983E+00   0.481770E+01
   0.310000E+04   0.829834E-04   0.118962E-03   0.380981E+00   0.481770E+01
   0.311000E+04   0.832722E-04   0.119666E-03   0.380981E+00   0.481770E+01
   0.312000E+04   0.835606E-04   0.120369E-03   0.380983E+00   0.481770E+01
   0.313000E+04   0.838487E-04   0.121073E-03   0.380987E+00   0.481770E+01
   0.314000E+04   0.841365E-04   0.121775E-03   0.380989E+00   0.481770E+01
   0.315000E+04   0.844239E-04   0.122478E-03   0.380988E+00   0.481770E+01
   0.316000E+04   0.847109E-04   0.123180E-03   0.380986E+00   0.481770E+01
   0.317000E+04   0.849975E-04   0.123883E-03   0.380984E+00   0.481770E+01
   0.318000E+04   0.852837E-04   0.124585E-03   0.380985E+00   0.481770E+01
   0.319000E+04   0.855698E-04   0.125287E-03   0.380987E+00   0.481770E+01
   0.320000E+04   0.858557E-04   0.125989E-03   0.380990E+00   0.481770E+01
   0.321000E+04   0.861415E-04   0.126692E-03   0.380992E+00   0.481770E+01
   0.322000E+04   0.864271E-04   0.127394E-03   0.380991E+00   0.481770E+01
   0.323000E+04   0.867123E-04   0.128097E-03   0.380989E+00   0.481770E+01
   0.324000E+04   0.869973E-04   0.128800E-03   0.380988E+00   0.481770E+01
   0.325000E+04   0.872824E-04   0.129502E-03   0.380990E+00   0.481770E+01
   0.326000E+04   0.875674E-04   0.130205E-03   0.380991E+00   0.481770E+01
   0.327000E+04   0.878523E-04   0.130908E-03   0.380991E+00   0.481770E+01
   0.328000E+04   0.881370E-04   0.131611E-03   0.380992E+00   0.481770E+01
   0.329000E+04   0.884216E-04   0.132315E-03   0.380993E+00   0.481770E+01
   0.330000E+04   0.887061E-04   0.133018E-03   0.380994E+00   0.481770E+01
   0.331000E+04   0.889903E-04   0.133722E-03   0.380993E+00   0.481770E+01
   0.332000E+04   0.892743E-04   0.134427E-03   0.380992E+00   0.481770E+01
   0.333000E+04   0.895581E-04   0.135131E-03   0.380992E+00   0.481770E+01
   0.334000E+04   0.898418E-04   0.135836E-03   0.380994E+00   0.481770E+01
   0.335000E+04   0.901252E-04   0.136542E-03   0.380995E+00   0.481770E+01
   0.336000E+04   0.904083E-04   0.137248E-03   0.380994E+00   0.481770E+01
   0.337000E+04   0.906910E-04   0.137954E-03   0.380990E+00   0.481770E+01
   0.338000E+04   0.909733E-04   0.138660E-03   0.380989E+00   0.481770E+01
   0.339000E+04   0.912556E-04   0.139366E-03   0.380991E+00   0.481770E+01
   0.340000E+04   0.915379E-04   0.140072E-03   0.380995E+00   0.481770E+01
   0.341000E+04   0.918202E-04   0.140778E-03   0.380997E+00   0.481770E+01
   0.342000E+04   0.921023E-04   0.141485E-03   0.380996E+00   0.481770E+01
   0.343000E+04   0.923841E-04   0.142191E-03   0.380994E+00   0.481770E+01
   0.344000E+04   0.926657E-04   0.142897E-03   0.380992E+00   0.481770E+01
   0.345000E+04   0.929470E-04   0.143603E-03   0.380992E+00   0.481770E+01
   0.346000E+04   0.932282E-04   0.144309E-03   0.380995E+00   0.481770E+01
   0.347000E+04   0.935094E-04   0.145015E-03   0.380998E+00   0.481770E+01
   0.348000E+04   0.937906E-04   0.145722E-03   0.381000E+00   0.481770E+01
   0.349000E+04   0.940715E-04   0.146428E-03   0.380999E+00   0.481770E+01
   0.350000E+04   0.943521E-04   0.147134E-03   0.380996E+00   0.481770E+01
   0.351000E+04   0.946324E-04   0.147840E-03   0.380995E+00   0.481770E+01
   0.352000E+04   0.949125E-04   0.148545E-03   0.380996E+00   0.481770E+01
   0.353000E+04   0.951927E-04   0.149251E-03   0.380999E+00   0.481770E+01
   0.354000E+04   0.954727E-04   0.149957E-03   0.381002E+00   0.481770E+01
   0.355000E+04   0.957525E-04   0.150663E-03   0.381002E+00   0.481770E+01
   0.356000E+04   0.960319E-04   0.151368E-03   0.381000E+00   0.481770E+01
   0.357000E+04   0.963110E-04   0.152074E-03   0.380998E+00   0.481770E+01
   0.358000E+04   0.965897E-04   0.152779E-03   0.380998E+00   0.481770E+01
   0.359000E+04   0.968683E-04   0.153485E-03   0.381000E+00   0.481770E+01
   0.360000E+04   0.971468E-04   0.154190E-03   0.381003E+00   0.481770E+01
   0.361000E+04   0.974251E-04   0.154896E-03   0.381006E+00   0.481770E+01
   0.362000E+04   0.977032E-04   0.155601E-03   0.381005E+00   0.481770E+01
   0.363000E+04   0.979808E-04   0.156305E-03   0.381002E+00   0.481770E+01
   0.364000E+04   0.982580E-04   0.157010E-03   0.381000E+00   0.481770E+01
   0.365000E+04   0.985348E-04   0.157714E-03   0.381001E+00   0.481770E+01
   0.366000E+04   0.988114E-04   0.158418E-03   0.381004E+00   0.481770E+01
   0.367000E+04   0.990878E-04   0.159121E-03   0.381007E+00   0.481770E+01
   0.368000E+04   0.993639E-04   0.159824E-03   0.381008E+00   0.481770E+01
   0.369000E+04   0.996396E-04   0.160527E-03   0.381007E+00   0.481770E+01
   0.370000E+04   0.999148E-04   0.161229E-03   0.381005E+00   0.481770E+01
   0.371000E+04   0.100189E-03   0.161929E-03   0.381003E+00   0.481770E+01
   0.372000E+04   0.100463E-03   0.162630E-03   0.381004E+00   0.481770E+01
   0.373000E+04   0.100738E-03   0.163329E-03   0.381007E+00   0.481770E+01
   0.374000E+04   0.101011E-03   0.164027E-03   0.381010E+00   0.481770E+01
   0.375000E+04   0.101284E-03   0.164725E-03   0.381011E+00   0.481770E+01
   0.376000E+04   0.101556E-03   0.165421E-03   0.381009E+00   0.481770E+01
   0.377000E+04   0.101828E-03   0.166116E-03   0.381006E+00   0.481770E+01
   0.378000E+04   0.102099E-03   0.166810E-03   0.381006E+00   0.481770E+01
   0.379000E+04   0.102369E-03   0.167503E-03   0.381008E+00   0.481770E+01
   0.380000E+04   0.102639E-03   0.168194E-03   0.381011E+00   0.481770E+01
   0.381000E+04   0.102908E-03   0.168884E-03   0.381014E+00   0.481770E+01
   0.382000E+04   0.103177E-03   0.169572E-03   0.381013E+00   0.481770E+01
   0.383000E+04   0.103445E-03   0.170259E-03   0.381011E+00   0.481770E+01
   0.384000E+04   0.103712E-03   0.170944E-03   0.381009E+00   0.481770E+01
   0.385000E+04   0.103978E-03   0.171627E-03   0.381009E+00   0.481770E+01
   0.386000E+04   0.104243E-03   0.172308E-03   0.381011E+00   0.481770E+01
   0.387000E+04   0.104508E-03   0.172987E-03   0.381014E+00   0.481770E+01
   0.388000E+04   0.104773E-03   0.173665E-03   0.381016E+00   0.481770E+01
   0.389000E+04   0.105036E-03   0.174341E-03   0.381016E+00   0.481770E+01
   0.390000E+04   0.105299E-03   0.175014E-03   0.381013E+00   0.481770E+01
   0.391000E+04   0.105561E-03   0.175686E-03   0.381012E+00   0.481770E+01
   0.392000E+04   0.105822E-03   0.176355E-03   0.381015E+00   0.481770E+01
   0.393000E+04   0.106083E-03   0.177023E-03   0.381015E+00   0.481770E+01