title="breakthrough data set at     5 wells"
variables="time(days)","cavg","cpk","upk","zswi"
zone i=     1295
   0.100000E+02   0.505202E-09   0.802872E-09   0.466114E+00   0.485783E+01
   0.200000E+02   0.115924E-08   0.185970E-08   0.380262E+00   0.483486E+01
   0.300000E+02   0.222054E-08   0.356288E-08   0.379883E+00   0.483486E+01
   0.400000E+02   0.384300E-08   0.614705E-08   0.379919E+00   0.483486E+01
   0.500000E+02   0.621788E-08   0.990091E-08   0.379971E+00   0.483486E+01
   0.600000E+02   0.957828E-08   0.151722E-07   0.380032E+00   0.483486E+01
   0.700000E+02   0.142011E-07   0.223683E-07   0.380084E+00   0.483486E+01
   0.800000E+02   0.204031E-07   0.319476E-07   0.380156E+00   0.483486E+01
   0.900000E+02   0.285399E-07   0.444145E-07   0.380229E+00   0.483486E+01
   0.100000E+03   0.389971E-07   0.603030E-07   0.380301E+00   0.483486E+01
   0.110000E+03   0.521770E-07   0.801520E-07   0.380371E+00   0.483486E+01
   0.120000E+03   0.685336E-07   0.104558E-06   0.380379E+00   0.483486E+01
   0.130000E+03   0.884748E-07   0.134027E-06   0.380440E+00   0.483486E+01
   0.140000E+03   0.112322E-06   0.168904E-06   0.380566E+00   0.483486E+01
   0.150000E+03   0.140403E-06   0.209505E-06   0.380630E+00   0.483486E+01
   0.160000E+03   0.173044E-06   0.256122E-06   0.380633E+00   0.483486E+01
   0.170000E+03   0.210436E-06   0.308832E-06   0.380691E+00   0.483486E+01
   0.180000E+03   0.252734E-06   0.370943E-06   0.380747E+00   0.483486E+01
   0.190000E+03   0.300009E-06   0.440735E-06   0.380802E+00   0.483486E+01
   0.200000E+03   0.352241E-06   0.517786E-06   0.380854E+00   0.483486E+01
   0.210000E+03   0.409294E-06   0.601827E-06   0.380904E+00   0.483486E+01
   0.220000E+03   0.470920E-06   0.692382E-06   0.380952E+00   0.483486E+01
   0.230000E+03   0.536768E-06   0.788769E-06   0.380998E+00   0.483486E+01
   0.240000E+03   0.606284E-06   0.889958E-06   0.381083E+00   0.483486E+01
   0.250000E+03   0.679144E-06   0.995113E-06   0.381084E+00   0.483486E+01
   0.260000E+03   0.754807E-06   0.110310E-05   0.381123E+00   0.483486E+01
   0.270000E+03   0.832820E-06   0.121286E-05   0.381161E+00   0.483486E+01
   0.280000E+03   0.912768E-06   0.132339E-05   0.381198E+00   0.483486E+01
   0.290000E+03   0.994280E-06   0.143377E-05   0.381232E+00   0.483486E+01
   0.300000E+03   0.107702E-05   0.154315E-05   0.381265E+00   0.483486E+01
   0.310000E+03   0.116067E-05   0.165078E-05   0.381297E+00   0.483486E+01
   0.320000E+03   0.124494E-05   0.175594E-05   0.381327E+00   0.483486E+01
   0.330000E+03   0.132954E-05   0.185796E-05   0.381355E+00   0.483486E+01
   0.340000E+03   0.141419E-05   0.195621E-05   0.381383E+00   0.483486E+01
   0.350000E+03   0.149858E-05   0.205005E-05   0.381409E+00   0.483486E+01
   0.360000E+03   0.158245E-05   0.213884E-05   0.381435E+00   0.483486E+01
   0.370000E+03   0.166552E-05   0.222197E-05   0.381459E+00   0.483486E+01
   0.380000E+03   0.174751E-05   0.229880E-05   0.381482E+00   0.483486E+01
   0.390000E+03   0.182820E-05   0.236874E-05   0.381505E+00   0.483486E+01
   0.400000E+03   0.190739E-05   0.243122E-05   0.381526E+00   0.483486E+01
   0.410000E+03   0.198491E-05   0.248574E-05   0.381547E+00   0.483486E+01
   0.420000E+03   0.206068E-05   0.253188E-05   0.381567E+00   0.483486E+01
   0.430000E+03   0.213466E-05   0.256931E-05   0.381587E+00   0.483486E+01
   0.440000E+03   0.220688E-05   0.259787E-05   0.381605E+00   0.483486E+01
   0.450000E+03   0.227743E-05   0.261749E-05   0.381623E+00   0.483486E+01
   0.460000E+03   0.234648E-05   0.262831E-05   0.381641E+00   0.483486E+01
   0.470000E+03   0.241427E-05   0.263536E-05   0.381658E+00   0.483486E+01
   0.480000E+03   0.248108E-05   0.278534E-05   0.381674E+00   0.483486E+01
   0.490000E+03   0.254728E-05   0.293842E-05   0.381690E+00   0.483486E+01
   0.500000E+03   0.261327E-05   0.309446E-05   0.381705E+00   0.483486E+01
   0.510000E+03   0.267948E-05   0.325334E-05   0.381719E+00   0.483486E+01
   0.520000E+03   0.274636E-05   0.341492E-05   0.381734E+00   0.483486E+01
   0.530000E+03   0.281436E-05   0.357905E-05   0.381747E+00   0.483486E+01
   0.540000E+03   0.288394E-05   0.374562E-05   0.381760E+00   0.483486E+01
   0.550000E+03   0.295553E-05   0.391447E-05   0.381773E+00   0.483486E+01
   0.560000E+03   0.302953E-05   0.408549E-05   0.381785E+00   0.483486E+01
   0.570000E+03   0.310634E-05   0.425854E-05   0.381797E+00   0.483486E+01
   0.580000E+03   0.318632E-05   0.443351E-05   0.381809E+00   0.483486E+01
   0.590000E+03   0.326981E-05   0.461028E-05   0.381819E+00   0.483486E+01
   0.600000E+03   0.335714E-05   0.478875E-05   0.381830E+00   0.483486E+01
   0.610000E+03   0.344861E-05   0.496882E-05   0.381840E+00   0.483486E+01
   0.620000E+03   0.354451E-05   0.515041E-05   0.381850E+00   0.483486E+01
   0.630000E+03   0.364514E-05   0.533344E-05   0.381860E+00   0.483486E+01
   0.640000E+03   0.375077E-05   0.551782E-05   0.381869E+00   0.483486E+01
   0.650000E+03   0.386168E-05   0.570351E-05   0.381879E+00   0.483486E+01
   0.660000E+03   0.397818E-05   0.589042E-05   0.381888E+00   0.483486E+01
   0.670000E+03   0.410054E-05   0.607851E-05   0.381896E+00   0.483486E+01
   0.680000E+03   0.422910E-05   0.626771E-05   0.381905E+00   0.483486E+01
   0.690000E+03   0.436421E-05   0.645798E-05   0.381913E+00   0.483486E+01
   0.700000E+03   0.450624E-05   0.664927E-05   0.381921E+00   0.483486E+01
   0.710000E+03   0.465562E-05   0.684153E-05   0.381929E+00   0.483486E+01
   0.720000E+03   0.481283E-05   0.703472E-05   0.381937E+00   0.483486E+01
   0.730000E+03   0.497836E-05   0.722878E-05   0.381945E+00   0.483486E+01
   0.740000E+03   0.515278E-05   0.742368E-05   0.381952E+00   0.483486E+01
   0.750000E+03   0.533662E-05   0.761936E-05   0.381960E+00   0.483486E+01
   0.760000E+03   0.553046E-05   0.781577E-05   0.381967E+00   0.483486E+01
   0.770000E+03   0.573478E-05   0.801284E-05   0.381974E+00   0.483486E+01
   0.780000E+03   0.595003E-05   0.821050E-05   0.381981E+00   0.483486E+01
   0.790000E+03   0.617654E-05   0.840870E-05   0.381988E+00   0.483486E+01
   0.800000E+03   0.641450E-05   0.860734E-05   0.381994E+00   0.483486E+01
   0.810000E+03   0.666395E-05   0.880636E-05   0.382001E+00   0.483486E+01
   0.820000E+03   0.692477E-05   0.900567E-05   0.382007E+00   0.483486E+01
   0.830000E+03   0.719668E-05   0.920520E-05   0.382013E+00   0.483486E+01
   0.840000E+03   0.747928E-05   0.940487E-05   0.382019E+00   0.483486E+01
   0.850000E+03   0.777203E-05   0.960461E-05   0.382025E+00   0.483486E+01
   0.860000E+03   0.807431E-05   0.980437E-05   0.382031E+00   0.483486E+01
   0.870000E+03   0.838546E-05   0.100041E-04   0.382037E+00   0.483486E+01
   0.880000E+03   0.870480E-05   0.102037E-04   0.382043E+00   0.483486E+01
   0.890000E+03   0.903168E-05   0.104032E-04   0.382048E+00   0.483486E+01
   0.900000E+03   0.936547E-05   0.106025E-04   0.382054E+00   0.483486E+01
   0.910000E+03   0.970562E-05   0.108016E-04   0.382059E+00   0.483486E+01
   0.920000E+03   0.100517E-04   0.110004E-04   0.382064E+00   0.483486E+01
   0.930000E+03   0.104032E-04   0.111990E-04   0.382069E+00   0.483486E+01
   0.940000E+03   0.107598E-04   0.114292E-04   0.382074E+00   0.483486E+01
   0.950000E+03   0.111214E-04   0.116858E-04   0.382079E+00   0.483486E+01
   0.960000E+03   0.114875E-04   0.119434E-04   0.382084E+00   0.483486E+01
   0.970000E+03   0.118580E-04   0.124805E-04   0.382088E+00   0.483486E+01
   0.980000E+03   0.122325E-04   0.131143E-04   0.382093E+00   0.483486E+01
   0.990000E+03   0.126109E-04   0.137586E-04   0.382098E+00   0.483486E+01
   0.100000E+04   0.129926E-04   0.144127E-04   0.382102E+00   0.483486E+01
   0.101000E+04   0.133774E-04   0.150755E-04   0.382107E+00   0.483486E+01
   0.102000E+04   0.137647E-04   0.157459E-04   0.382111E+00   0.483486E+01
   0.103000E+04   0.141541E-04   0.164227E-04   0.382115E+00   0.483486E+01
   0.104000E+04   0.145450E-04   0.171045E-04   0.382120E+00   0.483486E+01
   0.105000E+04   0.149370E-04   0.177900E-04   0.382124E+00   0.483486E+01
   0.106000E+04   0.153296E-04   0.184780E-04   0.382128E+00   0.483486E+01
   0.107000E+04   0.157224E-04   0.191671E-04   0.382133E+00   0.483486E+01
   0.108000E+04   0.161150E-04   0.198566E-04   0.382137E+00   0.483486E+01
   0.109000E+04   0.165074E-04   0.205458E-04   0.382141E+00   0.483486E+01
   0.110000E+04   0.168994E-04   0.212341E-04   0.382145E+00   0.483486E+01
   0.111000E+04   0.172909E-04   0.219216E-04   0.382149E+00   0.483486E+01
   0.112000E+04   0.176820E-04   0.226084E-04   0.382152E+00   0.483486E+01
   0.113000E+04   0.180728E-04   0.232948E-04   0.382156E+00   0.483486E+01
   0.114000E+04   0.184635E-04   0.239815E-04   0.382160E+00   0.483486E+01
   0.115000E+04   0.188543E-04   0.246691E-04   0.382163E+00   0.483486E+01
   0.116000E+04   0.192455E-04   0.253586E-04   0.382167E+00   0.483486E+01
   0.117000E+04   0.196372E-04   0.260507E-04   0.382170E+00   0.483486E+01
   0.118000E+04   0.200299E-04   0.267464E-04   0.382173E+00   0.483486E+01
   0.119000E+04   0.204237E-04   0.274467E-04   0.382176E+00   0.483486E+01
   0.120000E+04   0.208189E-04   0.281525E-04   0.382179E+00   0.483486E+01
   0.121000E+04   0.212157E-04   0.288646E-04   0.382182E+00   0.483486E+01
   0.122000E+04   0.216144E-04   0.295839E-04   0.382184E+00   0.483486E+01
   0.123000E+04   0.220152E-04   0.303111E-04   0.382187E+00   0.483486E+01
   0.124000E+04   0.224183E-04   0.310470E-04   0.382190E+00   0.483486E+01
   0.125000E+04   0.228239E-04   0.317923E-04   0.382192E+00   0.483486E+01
   0.126000E+04   0.232321E-04   0.325475E-04   0.382194E+00   0.483486E+01
   0.127000E+04   0.236430E-04   0.333131E-04   0.382197E+00   0.483486E+01
   0.128000E+04   0.240569E-04   0.340897E-04   0.382199E+00   0.483486E+01
   0.129000E+04   0.244738E-04   0.348776E-04   0.382201E+00   0.483486E+01
   0.130000E+04   0.248937E-04   0.356771E-04   0.382203E+00   0.483486E+01
   0.131000E+04   0.253168E-04   0.364885E-04   0.382205E+00   0.483486E+01
   0.132000E+04   0.257431E-04   0.373120E-04   0.382208E+00   0.483486E+01
   0.133000E+04   0.261725E-04   0.381476E-04   0.382209E+00   0.483486E+01
   0.134000E+04   0.266051E-04   0.389952E-04   0.382211E+00   0.483486E+01
   0.135000E+04   0.270409E-04   0.398549E-04   0.382213E+00   0.483486E+01
   0.136000E+04   0.274797E-04   0.407263E-04   0.382215E+00   0.483486E+01
   0.137000E+04   0.279214E-04   0.416091E-04   0.382217E+00   0.483486E+01
   0.138000E+04   0.283661E-04   0.425032E-04   0.382219E+00   0.483486E+01
   0.139000E+04   0.288136E-04   0.434080E-04   0.382220E+00   0.483486E+01
   0.140000E+04   0.292637E-04   0.443232E-04   0.382222E+00   0.483486E+01
   0.141000E+04   0.297163E-04   0.452483E-04   0.382224E+00   0.483486E+01
   0.142000E+04   0.301714E-04   0.461827E-04   0.382225E+00   0.483486E+01
   0.143000E+04   0.306287E-04   0.471262E-04   0.382227E+00   0.483486E+01
   0.144000E+04   0.310881E-04   0.480781E-04   0.382228E+00   0.483486E+01
   0.145000E+04   0.315495E-04   0.490381E-04   0.382230E+00   0.483486E+01
   0.146000E+04   0.320128E-04   0.500057E-04   0.382231E+00   0.483486E+01
   0.147000E+04   0.324779E-04   0.509805E-04   0.382232E+00   0.483486E+01
   0.148000E+04   0.329446E-04   0.519622E-04   0.382234E+00   0.483486E+01
   0.149000E+04   0.334128E-04   0.529503E-04   0.382235E+00   0.483486E+01
   0.150000E+04   0.338824E-04   0.539445E-04   0.382236E+00   0.483486E+01
   0.151000E+04   0.343534E-04   0.549445E-04   0.382237E+00   0.483486E+01
   0.152000E+04   0.348255E-04   0.559500E-04   0.382239E+00   0.483486E+01
   0.153000E+04   0.352987E-04   0.569607E-04   0.382240E+00   0.483486E+01
   0.154000E+04   0.357729E-04   0.579762E-04   0.382241E+00   0.483486E+01
   0.155000E+04   0.362480E-04   0.589963E-04   0.382242E+00   0.483486E+01
   0.156000E+04   0.367238E-04   0.600207E-04   0.382243E+00   0.483486E+01
   0.157000E+04   0.372004E-04   0.610492E-04   0.382244E+00   0.483486E+01
   0.158000E+04   0.376776E-04   0.620815E-04   0.382244E+00   0.483486E+01
   0.159000E+04   0.381553E-04   0.631173E-04   0.382245E+00   0.483486E+01
   0.160000E+04   0.386334E-04   0.641564E-04   0.382246E+00   0.483486E+01
   0.161000E+04   0.391119E-04   0.651986E-04   0.382247E+00   0.483486E+01
   0.162000E+04   0.395907E-04   0.662436E-04   0.382247E+00   0.483486E+01
   0.163000E+04   0.400697E-04   0.672913E-04   0.382248E+00   0.483486E+01
   0.164000E+04   0.405488E-04   0.683415E-04   0.382248E+00   0.483486E+01
   0.165000E+04   0.410281E-04   0.693939E-04   0.382249E+00   0.483486E+01
   0.166000E+04   0.415073E-04   0.704484E-04   0.382249E+00   0.483486E+01
   0.167000E+04   0.419865E-04   0.715049E-04   0.382250E+00   0.483486E+01
   0.168000E+04   0.424657E-04   0.725633E-04   0.382250E+00   0.483486E+01
   0.169000E+04   0.429448E-04   0.736233E-04   0.382250E+00   0.483486E+01
   0.170000E+04   0.434238E-04   0.746849E-04   0.382251E+00   0.483486E+01
   0.171000E+04   0.439026E-04   0.757481E-04   0.382251E+00   0.483486E+01
   0.172000E+04   0.443812E-04   0.768128E-04   0.382251E+00   0.483486E+01
   0.173000E+04   0.448598E-04   0.778788E-04   0.382252E+00   0.483486E+01
   0.174000E+04   0.453381E-04   0.789462E-04   0.382252E+00   0.483486E+01
   0.175000E+04   0.458163E-04   0.800150E-04   0.382252E+00   0.483486E+01
   0.176000E+04   0.462943E-04   0.810851E-04   0.382252E+00   0.483486E+01
   0.177000E+04   0.467721E-04   0.821565E-04   0.382253E+00   0.483486E+01
   0.178000E+04   0.472498E-04   0.832293E-04   0.382253E+00   0.483486E+01
   0.179000E+04   0.477274E-04   0.843034E-04   0.382253E+00   0.483486E+01
   0.180000E+04   0.482048E-04   0.853788E-04   0.382253E+00   0.483486E+01
   0.181000E+04   0.486822E-04   0.864555E-04   0.382253E+00   0.483486E+01
   0.182000E+04   0.491594E-04   0.875336E-04   0.382253E+00   0.483486E+01
   0.183000E+04   0.496366E-04   0.886130E-04   0.382253E+00   0.483486E+01
   0.184000E+04   0.501136E-04   0.896938E-04   0.382253E+00   0.483486E+01
   0.185000E+04   0.505906E-04   0.907759E-04   0.382253E+00   0.483486E+01
   0.186000E+04   0.510676E-04   0.918592E-04   0.382254E+00   0.483486E+01
   0.187000E+04   0.515444E-04   0.929437E-04   0.382254E+00   0.483486E+01
   0.188000E+04   0.520212E-04   0.940295E-04   0.382253E+00   0.483486E+01
   0.189000E+04   0.524979E-04   0.951163E-04   0.382253E+00   0.483486E+01
   0.190000E+04   0.529744E-04   0.962041E-04   0.382253E+00   0.483486E+01
   0.191000E+04   0.534508E-04   0.972929E-04   0.382253E+00   0.483486E+01
   0.192000E+04   0.539271E-04   0.983824E-04   0.382253E+00   0.483486E+01
   0.193000E+04   0.544032E-04   0.994726E-04   0.382253E+00   0.483486E+01
   0.194000E+04   0.548791E-04   0.100563E-03   0.382253E+00   0.483486E+01
   0.195000E+04   0.553547E-04   0.101654E-03   0.382253E+00   0.483486E+01
   0.196000E+04   0.558300E-04   0.102746E-03   0.382253E+00   0.483486E+01
   0.197000E+04   0.563049E-04   0.103837E-03   0.382252E+00   0.483486E+01
   0.198000E+04   0.567794E-04   0.104928E-03   0.382252E+00   0.483486E+01
   0.199000E+04   0.572535E-04   0.106019E-03   0.382252E+00   0.483486E+01
   0.200000E+04   0.577270E-04   0.107109E-03   0.382252E+00   0.483486E+01
   0.201000E+04   0.582000E-04   0.108199E-03   0.382252E+00   0.483486E+01
   0.202000E+04   0.586723E-04   0.109287E-03   0.382251E+00   0.483486E+01
   0.203000E+04   0.591439E-04   0.110374E-03   0.382251E+00   0.483486E+01
   0.204000E+04   0.596147E-04   0.111460E-03   0.382251E+00   0.483486E+01
   0.205000E+04   0.600846E-04   0.112544E-03   0.382251E+00   0.483486E+01
   0.206000E+04   0.605536E-04   0.113627E-03   0.382250E+00   0.483486E+01
   0.207000E+04   0.610216E-04   0.114707E-03   0.382250E+00   0.483486E+01
   0.208000E+04   0.614884E-04   0.115785E-03   0.382250E+00   0.483486E+01
   0.209000E+04   0.619542E-04   0.116860E-03   0.382250E+00   0.483486E+01
   0.210000E+04   0.624186E-04   0.117933E-03   0.382249E+00   0.483486E+01
   0.211000E+04   0.628818E-04   0.119003E-03   0.382249E+00   0.483486E+01
   0.212000E+04   0.633436E-04   0.120069E-03   0.382249E+00   0.483486E+01
   0.213000E+04   0.638039E-04   0.121132E-03   0.382248E+00   0.483486E+01
   0.214000E+04   0.642626E-04   0.122192E-03   0.382248E+00   0.483486E+01
   0.215000E+04   0.647198E-04   0.123248E-03   0.382248E+00   0.483486E+01
   0.216000E+04   0.651753E-04   0.124300E-03   0.382247E+00   0.483486E+01
   0.217000E+04   0.656291E-04   0.125348E-03   0.382247E+00   0.483486E+01
   0.218000E+04   0.660811E-04   0.126392E-03   0.382247E+00   0.483486E+01
   0.219000E+04   0.665312E-04   0.127431E-03   0.382246E+00   0.483486E+01
   0.220000E+04   0.669795E-04   0.128466E-03   0.382246E+00   0.483486E+01
   0.221000E+04   0.674259E-04   0.129497E-03   0.382246E+00   0.483486E+01
   0.222000E+04   0.678703E-04   0.130523E-03   0.382246E+00   0.483486E+01
   0.223000E+04   0.683127E-04   0.131544E-03   0.382245E+00   0.483486E+01
   0.224000E+04   0.687530E-04   0.132561E-03   0.382245E+00   0.483486E+01
   0.225000E+04   0.691913E-04   0.133573E-03   0.382245E+00   0.483486E+01
   0.226000E+04   0.696275E-04   0.134580E-03   0.382244E+00   0.483486E+01
   0.227000E+04   0.700617E-04   0.135582E-03   0.382244E+00   0.483486E+01
   0.228000E+04   0.704937E-04   0.136579E-03   0.382244E+00   0.483486E+01
   0.229000E+04   0.709235E-04   0.137571E-03   0.382243E+00   0.483486E+01
   0.230000E+04   0.713513E-04   0.138559E-03   0.382243E+00   0.483486E+01
   0.231000E+04   0.717769E-04   0.139541E-03   0.382243E+00   0.483486E+01
   0.232000E+04   0.722003E-04   0.140519E-03   0.382242E+00   0.483486E+01
   0.233000E+04   0.726216E-04   0.141492E-03   0.382242E+00   0.483486E+01
   0.234000E+04   0.730408E-04   0.142460E-03   0.382242E+00   0.483486E+01
   0.235000E+04   0.734578E-04   0.143423E-03   0.382241E+00   0.483486E+01
   0.236000E+04   0.738727E-04   0.144382E-03   0.382241E+00   0.483486E+01
   0.237000E+04   0.742855E-04   0.145336E-03   0.382241E+00   0.483486E+01
   0.238000E+04   0.746962E-04   0.146285E-03   0.382240E+00   0.483486E+01
   0.239000E+04   0.751047E-04   0.147229E-03   0.382240E+00   0.483486E+01
   0.240000E+04   0.755112E-04   0.148169E-03   0.382240E+00   0.483486E+01
   0.241000E+04   0.759156E-04   0.149105E-03   0.382239E+00   0.483486E+01
   0.242000E+04   0.763179E-04   0.150036E-03   0.382239E+00   0.483486E+01
   0.243000E+04   0.767182E-04   0.150963E-03   0.382239E+00   0.483486E+01
   0.244000E+04   0.771165E-04   0.151885E-03   0.382238E+00   0.483486E+01
   0.245000E+04   0.775128E-04   0.152803E-03   0.382238E+00   0.483486E+01
   0.246000E+04   0.779070E-04   0.153717E-03   0.382238E+00   0.483486E+01
   0.247000E+04   0.782993E-04   0.154626E-03   0.382237E+00   0.483486E+01
   0.248000E+04   0.786896E-04   0.155531E-03   0.382237E+00   0.483486E+01
   0.249000E+04   0.790780E-04   0.156433E-03   0.382237E+00   0.483486E+01
   0.250000E+04   0.794645E-04   0.157330E-03   0.382236E+00   0.483486E+01
   0.251000E+04   0.798491E-04   0.158223E-03   0.382236E+00   0.483486E+01
   0.252000E+04   0.802318E-04   0.159112E-03   0.382236E+00   0.483486E+01
   0.253000E+04   0.806126E-04   0.159998E-03   0.382235E+00   0.483486E+01
   0.254000E+04   0.809916E-04   0.160879E-03   0.382235E+00   0.483486E+01
   0.255000E+04   0.813688E-04   0.161757E-03   0.382235E+00   0.483486E+01
   0.256000E+04   0.817442E-04   0.162631E-03   0.382234E+00   0.483486E+01
   0.257000E+04   0.821177E-04   0.163501E-03   0.382234E+00   0.483486E+01
   0.258000E+04   0.824896E-04   0.164367E-03   0.382234E+00   0.483486E+01
   0.259000E+04   0.828597E-04   0.165230E-03   0.382233E+00   0.483486E+01
   0.260000E+04   0.832280E-04   0.166089E-03   0.382233E+00   0.483486E+01
   0.261000E+04   0.835947E-04   0.166945E-03   0.382233E+00   0.483486E+01
   0.262000E+04   0.839597E-04   0.167797E-03   0.382232E+00   0.483486E+01
   0.263000E+04   0.843231E-04   0.168646E-03   0.382232E+00   0.483486E+01
   0.264000E+04   0.846849E-04   0.169491E-03   0.382232E+00   0.483486E+01
   0.265000E+04   0.850451E-04   0.170333E-03   0.382231E+00   0.483486E+01
   0.266000E+04   0.854037E-04   0.171172E-03   0.382231E+00   0.483486E+01
   0.267000E+04   0.857608E-04   0.172007E-03   0.382230E+00   0.483486E+01
   0.268000E+04   0.861165E-04   0.172840E-03   0.382230E+00   0.483486E+01
   0.269000E+04   0.864707E-04   0.173669E-03   0.382229E+00   0.483486E+01
   0.270000E+04   0.868235E-04   0.174495E-03   0.382229E+00   0.483486E+01
   0.271000E+04   0.871749E-04   0.175319E-03   0.382229E+00   0.483486E+01
   0.272000E+04   0.875250E-04   0.176140E-03   0.382228E+00   0.483486E+01
   0.273000E+04   0.878739E-04   0.176958E-03   0.382227E+00   0.483486E+01
   0.274000E+04   0.882216E-04   0.177774E-03   0.382227E+00   0.483486E+01
   0.275000E+04   0.885682E-04   0.178587E-03   0.382226E+00   0.483486E+01
   0.276000E+04   0.889136E-04   0.179398E-03   0.382226E+00   0.483486E+01
   0.277000E+04   0.892581E-04   0.180207E-03   0.382225E+00   0.483486E+01
   0.278000E+04   0.896015E-04   0.181014E-03   0.382224E+00   0.483486E+01
   0.279000E+04   0.899441E-04   0.181819E-03   0.382224E+00   0.483486E+01
   0.280000E+04   0.902857E-04   0.182622E-03   0.382223E+00   0.483486E+01
   0.281000E+04   0.906266E-04   0.183424E-03   0.382222E+00   0.483486E+01
   0.282000E+04   0.909668E-04   0.184224E-03   0.382222E+00   0.483486E+01
   0.283000E+04   0.913063E-04   0.185023E-03   0.382221E+00   0.483486E+01
   0.284000E+04   0.916451E-04   0.185821E-03   0.382220E+00   0.483486E+01
   0.285000E+04   0.919833E-04   0.186618E-03   0.382220E+00   0.483486E+01
   0.286000E+04   0.923210E-04   0.187413E-03   0.382219E+00   0.483486E+01
   0.287000E+04   0.926582E-04   0.188208E-03   0.382218E+00   0.483486E+01
   0.288000E+04   0.929950E-04   0.189003E-03   0.382217E+00   0.483486E+01
   0.289000E+04   0.933313E-04   0.189796E-03   0.382217E+00   0.483486E+01
   0.290000E+04   0.936672E-04   0.190589E-03   0.382216E+00   0.483486E+01
   0.291000E+04   0.940027E-04   0.191382E-03   0.382215E+00   0.483486E+01
   0.292000E+04   0.943378E-04   0.192173E-03   0.382215E+00   0.483486E+01
   0.293000E+04   0.946726E-04   0.192965E-03   0.382214E+00   0.483486E+01
   0.294000E+04   0.950070E-04   0.193756E-03   0.382213E+00   0.483486E+01
   0.295000E+04   0.953411E-04   0.194546E-03   0.382213E+00   0.483486E+01
   0.296000E+04   0.956749E-04   0.195336E-03   0.382212E+00   0.483486E+01
   0.297000E+04   0.960083E-04   0.196126E-03   0.382211E+00   0.483486E+01
   0.298000E+04   0.963413E-04   0.196914E-03   0.382211E+00   0.483486E+01
   0.299000E+04   0.966740E-04   0.197702E-03   0.382210E+00   0.483486E+01
   0.300000E+04   0.970062E-04   0.198490E-03   0.382209E+00   0.483486E+01
   0.301000E+04   0.973380E-04   0.199277E-03   0.382209E+00   0.483486E+01
   0.302000E+04   0.976694E-04   0.200062E-03   0.382208E+00   0.483486E+01
   0.303000E+04   0.980003E-04   0.200847E-03   0.382208E+00   0.483486E+01
   0.304000E+04   0.983307E-04   0.201631E-03   0.382207E+00   0.483486E+01
   0.305000E+04   0.986605E-04   0.202414E-03   0.382207E+00   0.483486E+01
   0.306000E+04   0.989898E-04   0.203195E-03   0.382206E+00   0.483486E+01
   0.307000E+04   0.993185E-04   0.203975E-03   0.382205E+00   0.483486E+01
   0.308000E+04   0.996465E-04   0.204754E-03   0.382205E+00   0.483486E+01
   0.309000E+04   0.999739E-04   0.205531E-03   0.382204E+00   0.483486E+01
   0.310000E+04   0.100301E-03   0.206307E-03   0.382204E+00   0.483486E+01
   0.311000E+04   0.100627E-03   0.207080E-03   0.382203E+00   0.483486E+01
   0.312000E+04   0.100952E-03   0.207852E-03   0.382203E+00   0.483486E+01
   0.313000E+04   0.101276E-03   0.208622E-03   0.382202E+00   0.483486E+01
   0.314000E+04   0.101600E-03   0.209390E-03   0.382202E+00   0.483486E+01
   0.315000E+04   0.101922E-03   0.210155E-03   0.382201E+00   0.483486E+01
   0.316000E+04   0.102244E-03   0.210919E-03   0.382201E+00   0.483486E+01
   0.317000E+04   0.102565E-03   0.211680E-03   0.382200E+00   0.483486E+01
   0.318000E+04   0.102885E-03   0.212438E-03   0.382200E+00   0.483486E+01
   0.319000E+04   0.103204E-03   0.213194E-03   0.382199E+00   0.483486E+01
   0.320000E+04   0.103521E-03   0.213947E-03   0.382199E+00   0.483486E+01
   0.321000E+04   0.103838E-03   0.214698E-03   0.382198E+00   0.483486E+01
   0.322000E+04   0.104154E-03   0.215446E-03   0.382198E+00   0.483486E+01
   0.323000E+04   0.104468E-03   0.216191E-03   0.382198E+00   0.483486E+01
   0.324000E+04   0.104782E-03   0.216933E-03   0.382197E+00   0.483486E+01
   0.325000E+04   0.105094E-03   0.217672E-03   0.382197E+00   0.483486E+01
   0.326000E+04   0.105405E-03   0.218408E-03   0.382196E+00   0.483486E+01
   0.327000E+04   0.105715E-03   0.219141E-03   0.382196E+00   0.483486E+01
   0.328000E+04   0.106024E-03   0.219871E-03   0.382195E+00   0.483486E+01
   0.329000E+04   0.106331E-03   0.220597E-03   0.382195E+00   0.483486E+01
   0.330000E+04   0.106637E-03   0.221320E-03   0.382194E+00   0.483486E+01
   0.331000E+04   0.106942E-03   0.222040E-03   0.382194E+00   0.483486E+01
   0.332000E+04   0.107245E-03   0.222756E-03   0.382194E+00   0.483486E+01
   0.333000E+04   0.107548E-03   0.223469E-03   0.382193E+00   0.483486E+01
   0.334000E+04   0.107848E-03   0.224179E-03   0.382193E+00   0.483486E+01
   0.335000E+04   0.108148E-03   0.224885E-03   0.382192E+00   0.483486E+01
   0.336000E+04   0.108446E-03   0.225587E-03   0.382192E+00   0.483486E+01
   0.337000E+04   0.108743E-03   0.226286E-03   0.382191E+00   0.483486E+01
   0.338000E+04   0.109038E-03   0.226981E-03   0.382191E+00   0.483486E+01
   0.339000E+04   0.109332E-03   0.227673E-03   0.382191E+00   0.483486E+01
   0.340000E+04   0.109624E-03   0.228361E-03   0.382190E+00   0.483486E+01
   0.341000E+04   0.109915E-03   0.229045E-03   0.382190E+00   0.483486E+01
   0.342000E+04   0.110204E-03   0.229725E-03   0.382189E+00   0.483486E+01
   0.343000E+04   0.110492E-03   0.230402E-03   0.382189E+00   0.483486E+01
   0.344000E+04   0.110779E-03   0.231074E-03   0.382188E+00   0.483486E+01
   0.345000E+04   0.111063E-03   0.231743E-03   0.382188E+00   0.483486E+01
   0.346000E+04   0.111347E-03   0.232407E-03   0.382188E+00   0.483486E+01
   0.347000E+04   0.111629E-03   0.233068E-03   0.382187E+00   0.483486E+01
   0.348000E+04   0.111909E-03   0.233725E-03   0.382187E+00   0.483486E+01
   0.349000E+04   0.112187E-03   0.234378E-03   0.382187E+00   0.483486E+01
   0.350000E+04   0.112464E-03   0.235027E-03   0.382186E+00   0.483486E+01
   0.351000E+04   0.112740E-03   0.235671E-03   0.382186E+00   0.483486E+01
   0.352000E+04   0.113014E-03   0.236312E-03   0.382186E+00   0.483486E+01
   0.353000E+04   0.113286E-03   0.236948E-03   0.382185E+00   0.483486E+01
   0.354000E+04   0.113556E-03   0.237580E-03   0.382185E+00   0.483486E+01
   0.355000E+04   0.113825E-03   0.238208E-03   0.382185E+00   0.483486E+01
   0.356000E+04   0.114092E-03   0.238832E-03   0.382185E+00   0.483486E+01
   0.357000E+04   0.114358E-03   0.239452E-03   0.382184E+00   0.483486E+01
   0.358000E+04   0.114622E-03   0.240067E-03   0.382184E+00   0.483486E+01
   0.359000E+04   0.114884E-03   0.240678E-03   0.382184E+00   0.483486E+01
   0.360000E+04   0.115144E-03   0.241285E-03   0.382183E+00   0.483486E+01
   0.361000E+04   0.115403E-03   0.241887E-03   0.382183E+00   0.483486E+01
   0.362000E+04   0.115660E-03   0.242485E-03   0.382183E+00   0.483486E+01
   0.363000E+04   0.115915E-03   0.243078E-03   0.382182E+00   0.483486E+01
   0.364000E+04   0.116169E-03   0.243668E-03   0.382182E+00   0.483486E+01
   0.365000E+04   0.116421E-03   0.244252E-03   0.382182E+00   0.483486E+01
   0.366000E+04   0.116671E-03   0.244833E-03   0.382182E+00   0.483486E+01
   0.367000E+04   0.116919E-03   0.245408E-03   0.382181E+00   0.483486E+01
   0.368000E+04   0.117165E-03   0.245980E-03   0.382181E+00   0.483486E+01
   0.369000E+04   0.117410E-03   0.246546E-03   0.382181E+00   0.483486E+01
   0.370000E+04   0.117653E-03   0.247109E-03   0.382181E+00   0.483486E+01
   0.371000E+04   0.117894E-03   0.247666E-03   0.382180E+00   0.483486E+01
   0.372000E+04   0.118134E-03   0.248220E-03   0.382180E+00   0.483486E+01
   0.373000E+04   0.118371E-03   0.248768E-03   0.382180E+00   0.483486E+01
   0.374000E+04   0.118607E-03   0.249312E-03   0.382180E+00   0.483486E+01
   0.375000E+04   0.118841E-03   0.249851E-03   0.382179E+00   0.483486E+01
   0.376000E+04   0.119073E-03   0.250386E-03   0.382179E+00   0.483486E+01
   0.377000E+04   0.119304E-03   0.250916E-03   0.382179E+00   0.483486E+01
   0.378000E+04   0.119532E-03   0.251441E-03   0.382178E+00   0.483486E+01
   0.379000E+04   0.119759E-03   0.251962E-03   0.382178E+00   0.483486E+01
   0.380000E+04   0.119984E-03   0.252478E-03   0.382178E+00   0.483486E+01
   0.381000E+04   0.120207E-03   0.252989E-03   0.382178E+00   0.483486E+01
   0.382000E+04   0.120428E-03   0.253496E-03   0.382178E+00   0.483486E+01
   0.383000E+04   0.120647E-03   0.253997E-03   0.382177E+00   0.483486E+01
   0.384000E+04   0.120865E-03   0.254494E-03   0.382177E+00   0.483486E+01
   0.385000E+04   0.121081E-03   0.254986E-03   0.382177E+00   0.483486E+01
   0.386000E+04   0.121294E-03   0.255474E-03   0.382177E+00   0.483486E+01
   0.387000E+04   0.121506E-03   0.255956E-03   0.382176E+00   0.483486E+01
   0.388000E+04   0.121717E-03   0.256434E-03   0.382176E+00   0.483486E+01
   0.389000E+04   0.121925E-03   0.256906E-03   0.382176E+00   0.483486E+01
   0.390000E+04   0.122131E-03   0.257374E-03   0.382176E+00   0.483486E+01
   0.391000E+04   0.122336E-03   0.257837E-03   0.382175E+00   0.483486E+01
   0.392000E+04   0.122539E-03   0.258295E-03   0.382175E+00   0.483486E+01
   0.393000E+04   0.122739E-03   0.258748E-03   0.382175E+00   0.483486E+01