title="breakthrough data set at     5 wells"
variables="time(days)","cavg","cpk","upk","zswi"
zone i=     1295
   0.100000E+02   0.862672E-10   0.197805E-09   0.462087E+00   0.486269E+01
   0.200000E+02   0.206367E-09   0.492356E-09   0.382109E+00   0.483928E+01
   0.300000E+02   0.425982E-09   0.102724E-08   0.381689E+00   0.483928E+01
   0.400000E+02   0.813893E-09   0.196541E-08   0.381596E+00   0.483928E+01
   0.500000E+02   0.147669E-08   0.355611E-08   0.381506E+00   0.483928E+01
   0.600000E+02   0.256960E-08   0.615746E-08   0.381420E+00   0.483928E+01
   0.700000E+02   0.430542E-08   0.102532E-07   0.381338E+00   0.483928E+01
   0.800000E+02   0.696125E-08   0.164632E-07   0.381261E+00   0.483928E+01
   0.900000E+02   0.108803E-07   0.255412E-07   0.381188E+00   0.483928E+01
   0.100000E+03   0.164721E-07   0.383692E-07   0.381119E+00   0.483928E+01
   0.110000E+03   0.242083E-07   0.559409E-07   0.381052E+00   0.483928E+01
   0.120000E+03   0.346158E-07   0.793408E-07   0.380988E+00   0.483928E+01
   0.130000E+03   0.482491E-07   0.109679E-06   0.380987E+00   0.483928E+01
   0.140000E+03   0.657188E-07   0.148150E-06   0.380925E+00   0.483928E+01
   0.150000E+03   0.876483E-07   0.195934E-06   0.380865E+00   0.483928E+01
   0.160000E+03   0.114670E-06   0.254189E-06   0.380806E+00   0.483928E+01
   0.170000E+03   0.147416E-06   0.324027E-06   0.380748E+00   0.483928E+01
   0.180000E+03   0.186504E-06   0.406490E-06   0.380693E+00   0.483928E+01
   0.190000E+03   0.232535E-06   0.502539E-06   0.380640E+00   0.483928E+01
   0.200000E+03   0.286076E-06   0.613033E-06   0.380589E+00   0.483928E+01
   0.210000E+03   0.347662E-06   0.738722E-06   0.380540E+00   0.483928E+01
   0.220000E+03   0.417783E-06   0.880241E-06   0.380492E+00   0.483928E+01
   0.230000E+03   0.496885E-06   0.103810E-05   0.380446E+00   0.483928E+01
   0.240000E+03   0.585364E-06   0.121270E-05   0.380401E+00   0.483928E+01
   0.250000E+03   0.683562E-06   0.140431E-05   0.380358E+00   0.483928E+01
   0.260000E+03   0.791773E-06   0.161309E-05   0.380316E+00   0.483928E+01
   0.270000E+03   0.910232E-06   0.183907E-05   0.380276E+00   0.483928E+01
   0.280000E+03   0.103913E-05   0.208221E-05   0.380236E+00   0.483928E+01
   0.290000E+03   0.117859E-05   0.234235E-05   0.380198E+00   0.483928E+01
   0.300000E+03   0.132870E-05   0.261924E-05   0.380160E+00   0.483928E+01
   0.310000E+03   0.148950E-05   0.291254E-05   0.380123E+00   0.483928E+01
   0.320000E+03   0.166098E-05   0.322186E-05   0.380087E+00   0.483928E+01
   0.330000E+03   0.184308E-05   0.354673E-05   0.380052E+00   0.483928E+01
   0.340000E+03   0.203570E-05   0.388662E-05   0.380017E+00   0.483928E+01
   0.350000E+03   0.223873E-05   0.424094E-05   0.379983E+00   0.483928E+01
   0.360000E+03   0.245197E-05   0.460909E-05   0.379949E+00   0.483928E+01
   0.370000E+03   0.267525E-05   0.499039E-05   0.379916E+00   0.483928E+01
   0.380000E+03   0.290832E-05   0.538417E-05   0.379883E+00   0.483928E+01
   0.390000E+03   0.315092E-05   0.578971E-05   0.379851E+00   0.483928E+01
   0.400000E+03   0.340278E-05   0.620627E-05   0.379819E+00   0.483928E+01
   0.410000E+03   0.366359E-05   0.663310E-05   0.379788E+00   0.483928E+01
   0.420000E+03   0.393303E-05   0.706946E-05   0.379757E+00   0.483928E+01
   0.430000E+03   0.421075E-05   0.751459E-05   0.379727E+00   0.483928E+01
   0.440000E+03   0.449640E-05   0.796772E-05   0.379697E+00   0.483928E+01
   0.450000E+03   0.478963E-05   0.842812E-05   0.379667E+00   0.483928E+01
   0.460000E+03   0.509005E-05   0.889503E-05   0.379639E+00   0.483928E+01
   0.470000E+03   0.539729E-05   0.936772E-05   0.379610E+00   0.483928E+01
   0.480000E+03   0.571097E-05   0.984549E-05   0.379583E+00   0.483928E+01
   0.490000E+03   0.603070E-05   0.103276E-04   0.379555E+00   0.483928E+01
   0.500000E+03   0.635611E-05   0.108135E-04   0.379528E+00   0.483928E+01
   0.510000E+03   0.668682E-05   0.113024E-04   0.379502E+00   0.483928E+01
   0.520000E+03   0.702246E-05   0.117937E-04   0.379476E+00   0.483928E+01
   0.530000E+03   0.736264E-05   0.122869E-04   0.379450E+00   0.483928E+01
   0.540000E+03   0.770702E-05   0.127813E-04   0.379425E+00   0.483928E+01
   0.550000E+03   0.805523E-05   0.132764E-04   0.379401E+00   0.483928E+01
   0.560000E+03   0.840693E-05   0.137717E-04   0.379377E+00   0.483928E+01
   0.570000E+03   0.876177E-05   0.142666E-04   0.379353E+00   0.483928E+01
   0.580000E+03   0.911944E-05   0.147608E-04   0.379330E+00   0.483928E+01
   0.590000E+03   0.947960E-05   0.152537E-04   0.379307E+00   0.483928E+01
   0.600000E+03   0.984195E-05   0.157450E-04   0.379284E+00   0.483928E+01
   0.610000E+03   0.102062E-04   0.162342E-04   0.379262E+00   0.483928E+01
   0.620000E+03   0.105720E-04   0.167211E-04   0.379240E+00   0.483928E+01
   0.630000E+03   0.109391E-04   0.172052E-04   0.379219E+00   0.483928E+01
   0.640000E+03   0.113073E-04   0.176863E-04   0.379198E+00   0.483928E+01
   0.650000E+03   0.116762E-04   0.181640E-04   0.379177E+00   0.483928E+01
   0.660000E+03   0.120456E-04   0.186382E-04   0.379156E+00   0.483928E+01
   0.670000E+03   0.124153E-04   0.191084E-04   0.379136E+00   0.483928E+01
   0.680000E+03   0.127849E-04   0.195746E-04   0.379116E+00   0.483928E+01
   0.690000E+03   0.131542E-04   0.200626E-04   0.379096E+00   0.483928E+01
   0.700000E+03   0.135229E-04   0.205577E-04   0.379077E+00   0.483928E+01
   0.710000E+03   0.138909E-04   0.210485E-04   0.379058E+00   0.483928E+01
   0.720000E+03   0.142578E-04   0.215348E-04   0.379039E+00   0.483928E+01
   0.730000E+03   0.146235E-04   0.220161E-04   0.379021E+00   0.483928E+01
   0.740000E+03   0.149876E-04   0.224923E-04   0.379002E+00   0.483928E+01
   0.750000E+03   0.153498E-04   0.229631E-04   0.378984E+00   0.483928E+01
   0.760000E+03   0.157101E-04   0.234283E-04   0.378967E+00   0.483928E+01
   0.770000E+03   0.160680E-04   0.238877E-04   0.378949E+00   0.483928E+01
   0.780000E+03   0.164234E-04   0.243410E-04   0.378932E+00   0.483928E+01
   0.790000E+03   0.167761E-04   0.247881E-04   0.378915E+00   0.483928E+01
   0.800000E+03   0.171257E-04   0.252288E-04   0.378899E+00   0.483928E+01
   0.810000E+03   0.174722E-04   0.256629E-04   0.378882E+00   0.483928E+01
   0.820000E+03   0.178151E-04   0.260904E-04   0.378866E+00   0.483928E+01
   0.830000E+03   0.181544E-04   0.265109E-04   0.378850E+00   0.483928E+01
   0.840000E+03   0.184899E-04   0.269246E-04   0.378835E+00   0.483928E+01
   0.850000E+03   0.188213E-04   0.273311E-04   0.378819E+00   0.483928E+01
   0.860000E+03   0.191485E-04   0.277305E-04   0.378804E+00   0.483928E+01
   0.870000E+03   0.194712E-04   0.281228E-04   0.378788E+00   0.483928E+01
   0.880000E+03   0.197894E-04   0.285078E-04   0.378773E+00   0.483928E+01
   0.890000E+03   0.201029E-04   0.288855E-04   0.378759E+00   0.483928E+01
   0.900000E+03   0.204115E-04   0.292559E-04   0.378744E+00   0.483928E+01
   0.910000E+03   0.207151E-04   0.296190E-04   0.378729E+00   0.483928E+01
   0.920000E+03   0.210137E-04   0.299748E-04   0.378715E+00   0.483928E+01
   0.930000E+03   0.213071E-04   0.303234E-04   0.378701E+00   0.483928E+01
   0.940000E+03   0.215952E-04   0.306648E-04   0.378687E+00   0.483928E+01
   0.950000E+03   0.218781E-04   0.309991E-04   0.378673E+00   0.483928E+01
   0.960000E+03   0.221555E-04   0.313264E-04   0.378659E+00   0.483928E+01
   0.970000E+03   0.224276E-04   0.316467E-04   0.378646E+00   0.483928E+01
   0.980000E+03   0.226942E-04   0.319602E-04   0.378633E+00   0.483928E+01
   0.990000E+03   0.229555E-04   0.322669E-04   0.378619E+00   0.483928E+01
   0.100000E+04   0.232112E-04   0.325671E-04   0.378606E+00   0.483928E+01
   0.101000E+04   0.234616E-04   0.328609E-04   0.378593E+00   0.483928E+01
   0.102000E+04   0.237066E-04   0.331484E-04   0.378581E+00   0.483928E+01
   0.103000E+04   0.239463E-04   0.334298E-04   0.378568E+00   0.483928E+01
   0.104000E+04   0.241807E-04   0.337053E-04   0.378555E+00   0.483928E+01
   0.105000E+04   0.244098E-04   0.339750E-04   0.378543E+00   0.483928E+01
   0.106000E+04   0.246338E-04   0.342392E-04   0.378531E+00   0.483928E+01
   0.107000E+04   0.248528E-04   0.344981E-04   0.378519E+00   0.483928E+01
   0.108000E+04   0.250667E-04   0.347518E-04   0.378507E+00   0.483928E+01
   0.109000E+04   0.252757E-04   0.350006E-04   0.378495E+00   0.483928E+01
   0.110000E+04   0.254799E-04   0.352446E-04   0.378483E+00   0.483928E+01
   0.111000E+04   0.256795E-04   0.354842E-04   0.378471E+00   0.483928E+01
   0.112000E+04   0.258744E-04   0.357194E-04   0.378460E+00   0.483928E+01
   0.113000E+04   0.260649E-04   0.359505E-04   0.378448E+00   0.483928E+01
   0.114000E+04   0.262510E-04   0.361777E-04   0.378436E+00   0.483928E+01
   0.115000E+04   0.264329E-04   0.364013E-04   0.378426E+00   0.483928E+01
   0.116000E+04   0.266108E-04   0.366214E-04   0.378414E+00   0.483928E+01
   0.117000E+04   0.267851E-04   0.368387E-04   0.378386E+00   0.483928E+01
   0.118000E+04   0.269559E-04   0.370535E-04   0.378364E+00   0.483928E+01
   0.119000E+04   0.271235E-04   0.372658E-04   0.378351E+00   0.483928E+01
   0.120000E+04   0.272880E-04   0.374758E-04   0.378344E+00   0.483928E+01
   0.121000E+04   0.274496E-04   0.376841E-04   0.378318E+00   0.483928E+01
   0.122000E+04   0.276081E-04   0.378900E-04   0.378324E+00   0.483928E+01
   0.123000E+04   0.277637E-04   0.380941E-04   0.378315E+00   0.483928E+01
   0.124000E+04   0.279167E-04   0.382967E-04   0.378306E+00   0.483928E+01
   0.125000E+04   0.280672E-04   0.384980E-04   0.378298E+00   0.483928E+01
   0.126000E+04   0.282156E-04   0.386986E-04   0.378292E+00   0.483928E+01
   0.127000E+04   0.283621E-04   0.388987E-04   0.378284E+00   0.483928E+01
   0.128000E+04   0.285075E-04   0.390993E-04   0.378263E+00   0.483928E+01
   0.129000E+04   0.286520E-04   0.393007E-04   0.378242E+00   0.483928E+01
   0.130000E+04   0.287958E-04   0.395030E-04   0.378231E+00   0.483928E+01
   0.131000E+04   0.289392E-04   0.397065E-04   0.378226E+00   0.483928E+01
   0.132000E+04   0.290826E-04   0.399118E-04   0.378201E+00   0.483928E+01
   0.133000E+04   0.292256E-04   0.401182E-04   0.378207E+00   0.483928E+01
   0.134000E+04   0.293686E-04   0.403262E-04   0.378201E+00   0.483928E+01
   0.135000E+04   0.295120E-04   0.405362E-04   0.378195E+00   0.483928E+01
   0.136000E+04   0.296558E-04   0.407482E-04   0.378189E+00   0.483928E+01
   0.137000E+04   0.298004E-04   0.409627E-04   0.378185E+00   0.483928E+01
   0.138000E+04   0.299461E-04   0.411798E-04   0.378179E+00   0.483928E+01
   0.139000E+04   0.300936E-04   0.414004E-04   0.378162E+00   0.483928E+01
   0.140000E+04   0.302429E-04   0.416244E-04   0.378141E+00   0.483928E+01
   0.141000E+04   0.303943E-04   0.418519E-04   0.378131E+00   0.483928E+01
   0.142000E+04   0.305479E-04   0.420829E-04   0.378127E+00   0.483928E+01
   0.143000E+04   0.307035E-04   0.423171E-04   0.378123E+00   0.483928E+01
   0.144000E+04   0.308614E-04   0.425547E-04   0.378108E+00   0.483928E+01
   0.145000E+04   0.310216E-04   0.427957E-04   0.378099E+00   0.483928E+01
   0.146000E+04   0.311845E-04   0.430402E-04   0.378097E+00   0.483928E+01
   0.147000E+04   0.313501E-04   0.432884E-04   0.378093E+00   0.483928E+01
   0.148000E+04   0.315192E-04   0.435409E-04   0.378079E+00   0.483928E+01
   0.149000E+04   0.316914E-04   0.437974E-04   0.378069E+00   0.483928E+01
   0.150000E+04   0.318671E-04   0.440582E-04   0.378062E+00   0.483928E+01
   0.151000E+04   0.320465E-04   0.443233E-04   0.378060E+00   0.483928E+01
   0.152000E+04   0.322298E-04   0.445928E-04   0.378052E+00   0.483928E+01
   0.153000E+04   0.324175E-04   0.448673E-04   0.378037E+00   0.483928E+01
   0.154000E+04   0.326098E-04   0.451467E-04   0.378026E+00   0.483928E+01
   0.155000E+04   0.328069E-04   0.454310E-04   0.378025E+00   0.483928E+01
   0.156000E+04   0.330083E-04   0.457199E-04   0.378018E+00   0.483928E+01
   0.157000E+04   0.332143E-04   0.460133E-04   0.378015E+00   0.483928E+01
   0.158000E+04   0.334251E-04   0.463111E-04   0.378014E+00   0.483928E+01
   0.159000E+04   0.336405E-04   0.466132E-04   0.378011E+00   0.483928E+01
   0.160000E+04   0.338612E-04   0.469198E-04   0.377998E+00   0.483928E+01
   0.161000E+04   0.340871E-04   0.472308E-04   0.377982E+00   0.483928E+01
   0.162000E+04   0.343180E-04   0.475457E-04   0.377977E+00   0.483928E+01
   0.163000E+04   0.345541E-04   0.478643E-04   0.377976E+00   0.483928E+01
   0.164000E+04   0.347951E-04   0.481865E-04   0.377956E+00   0.483928E+01
   0.165000E+04   0.350406E-04   0.485114E-04   0.377961E+00   0.483928E+01
   0.166000E+04   0.352905E-04   0.488388E-04   0.377959E+00   0.483928E+01
   0.167000E+04   0.355450E-04   0.491686E-04   0.377956E+00   0.483928E+01
   0.168000E+04   0.358038E-04   0.495006E-04   0.377953E+00   0.483928E+01
   0.169000E+04   0.360670E-04   0.498347E-04   0.377951E+00   0.483928E+01
   0.170000E+04   0.363347E-04   0.501706E-04   0.377949E+00   0.483928E+01
   0.171000E+04   0.366066E-04   0.505083E-04   0.377943E+00   0.483928E+01
   0.172000E+04   0.368833E-04   0.508478E-04   0.377926E+00   0.483928E+01
   0.173000E+04   0.371645E-04   0.511887E-04   0.377916E+00   0.483928E+01
   0.174000E+04   0.374500E-04   0.515305E-04   0.377915E+00   0.483928E+01
   0.175000E+04   0.377394E-04   0.518730E-04   0.377898E+00   0.483928E+01
   0.176000E+04   0.380321E-04   0.522152E-04   0.377902E+00   0.483928E+01
   0.177000E+04   0.383280E-04   0.525568E-04   0.377901E+00   0.483928E+01
   0.178000E+04   0.386270E-04   0.528978E-04   0.377899E+00   0.483928E+01
   0.179000E+04   0.389290E-04   0.532378E-04   0.377895E+00   0.483928E+01
   0.180000E+04   0.392340E-04   0.535770E-04   0.377892E+00   0.483928E+01
   0.181000E+04   0.395420E-04   0.539154E-04   0.377890E+00   0.483928E+01
   0.182000E+04   0.398529E-04   0.542528E-04   0.377885E+00   0.483928E+01
   0.183000E+04   0.401672E-04   0.545896E-04   0.377868E+00   0.483928E+01
   0.184000E+04   0.404847E-04   0.549258E-04   0.377852E+00   0.483928E+01
   0.185000E+04   0.408053E-04   0.552611E-04   0.377850E+00   0.483928E+01
   0.186000E+04   0.411288E-04   0.555953E-04   0.377850E+00   0.483928E+01
   0.187000E+04   0.414551E-04   0.559286E-04   0.377838E+00   0.483928E+01
   0.188000E+04   0.417840E-04   0.562612E-04   0.377830E+00   0.483928E+01
   0.189000E+04   0.421158E-04   0.565931E-04   0.377824E+00   0.483928E+01
   0.190000E+04   0.424507E-04   0.569247E-04   0.377825E+00   0.483928E+01
   0.191000E+04   0.427887E-04   0.572563E-04   0.377821E+00   0.483928E+01
   0.192000E+04   0.431305E-04   0.575885E-04   0.377810E+00   0.483928E+01
   0.193000E+04   0.434764E-04   0.579221E-04   0.377803E+00   0.483928E+01
   0.194000E+04   0.438259E-04   0.582571E-04   0.377802E+00   0.483928E+01
   0.195000E+04   0.441795E-04   0.585939E-04   0.377796E+00   0.483928E+01
   0.196000E+04   0.445373E-04   0.589326E-04   0.377797E+00   0.483928E+01
   0.197000E+04   0.448993E-04   0.592732E-04   0.377799E+00   0.483928E+01
   0.198000E+04   0.452657E-04   0.596159E-04   0.377794E+00   0.483928E+01
   0.199000E+04   0.456366E-04   0.599607E-04   0.377781E+00   0.483928E+01
   0.200000E+04   0.460122E-04   0.603079E-04   0.377772E+00   0.483928E+01
   0.201000E+04   0.463923E-04   0.606571E-04   0.377773E+00   0.483928E+01
   0.202000E+04   0.467764E-04   0.610081E-04   0.377773E+00   0.483928E+01
   0.203000E+04   0.471649E-04   0.613609E-04   0.377761E+00   0.483928E+01
   0.204000E+04   0.475576E-04   0.617157E-04   0.377750E+00   0.483928E+01
   0.205000E+04   0.479549E-04   0.620726E-04   0.377748E+00   0.483928E+01
   0.206000E+04   0.483567E-04   0.624315E-04   0.377751E+00   0.483928E+01
   0.207000E+04   0.487627E-04   0.627926E-04   0.377734E+00   0.483928E+01
   0.208000E+04   0.491727E-04   0.631555E-04   0.377739E+00   0.483928E+01
   0.209000E+04   0.495867E-04   0.635201E-04   0.377741E+00   0.483928E+01
   0.210000E+04   0.500047E-04   0.638864E-04   0.377741E+00   0.483928E+01
   0.211000E+04   0.504265E-04   0.642544E-04   0.377740E+00   0.483928E+01
   0.212000E+04   0.508525E-04   0.646241E-04   0.377742E+00   0.483928E+01
   0.213000E+04   0.512824E-04   0.649953E-04   0.377743E+00   0.483928E+01
   0.214000E+04   0.517164E-04   0.653678E-04   0.377738E+00   0.483928E+01
   0.215000E+04   0.521539E-04   0.657415E-04   0.377721E+00   0.483928E+01
   0.216000E+04   0.525952E-04   0.661160E-04   0.377711E+00   0.483928E+01
   0.217000E+04   0.530396E-04   0.664905E-04   0.377712E+00   0.483928E+01
   0.218000E+04   0.534863E-04   0.668646E-04   0.377705E+00   0.483928E+01
   0.219000E+04   0.539352E-04   0.672377E-04   0.377706E+00   0.483928E+01
   0.220000E+04   0.543861E-04   0.676095E-04   0.377709E+00   0.483928E+01
   0.221000E+04   0.548387E-04   0.679798E-04   0.377707E+00   0.483928E+01
   0.222000E+04   0.552933E-04   0.683488E-04   0.377700E+00   0.483928E+01
   0.223000E+04   0.557500E-04   0.688551E-04   0.377689E+00   0.483928E+01
   0.224000E+04   0.562087E-04   0.693971E-04   0.377690E+00   0.483928E+01
   0.225000E+04   0.566693E-04   0.699394E-04   0.377692E+00   0.483928E+01
   0.226000E+04   0.571315E-04   0.704819E-04   0.377681E+00   0.483928E+01
   0.227000E+04   0.575950E-04   0.710245E-04   0.377672E+00   0.483928E+01
   0.228000E+04   0.580605E-04   0.715675E-04   0.377669E+00   0.483928E+01
   0.229000E+04   0.585278E-04   0.721108E-04   0.377672E+00   0.483928E+01
   0.230000E+04   0.589968E-04   0.726546E-04   0.377670E+00   0.483928E+01
   0.231000E+04   0.594681E-04   0.731994E-04   0.377665E+00   0.483928E+01
   0.232000E+04   0.599424E-04   0.737461E-04   0.377661E+00   0.483928E+01
   0.233000E+04   0.604190E-04   0.742945E-04   0.377660E+00   0.483928E+01
   0.234000E+04   0.608984E-04   0.748451E-04   0.377656E+00   0.483928E+01
   0.235000E+04   0.613806E-04   0.753976E-04   0.377659E+00   0.483928E+01
   0.236000E+04   0.618654E-04   0.759522E-04   0.377663E+00   0.483928E+01
   0.237000E+04   0.623525E-04   0.765083E-04   0.377660E+00   0.483928E+01
   0.238000E+04   0.628418E-04   0.770659E-04   0.377652E+00   0.483928E+01
   0.239000E+04   0.633334E-04   0.776249E-04   0.377642E+00   0.483928E+01
   0.240000E+04   0.638269E-04   0.781846E-04   0.377644E+00   0.483928E+01
   0.241000E+04   0.643211E-04   0.787444E-04   0.377635E+00   0.483928E+01
   0.242000E+04   0.648162E-04   0.793037E-04   0.377637E+00   0.483928E+01
   0.243000E+04   0.653119E-04   0.798620E-04   0.377642E+00   0.483928E+01
   0.244000E+04   0.658078E-04   0.804190E-04   0.377641E+00   0.483928E+01
   0.245000E+04   0.663038E-04   0.809743E-04   0.377634E+00   0.483928E+01
   0.246000E+04   0.668003E-04   0.815285E-04   0.377623E+00   0.483928E+01
   0.247000E+04   0.672970E-04   0.820811E-04   0.377626E+00   0.483928E+01
   0.248000E+04   0.677933E-04   0.826320E-04   0.377617E+00   0.483928E+01
   0.249000E+04   0.682893E-04   0.831809E-04   0.377619E+00   0.483928E+01
   0.250000E+04   0.687851E-04   0.837278E-04   0.377624E+00   0.483928E+01
   0.251000E+04   0.692804E-04   0.842725E-04   0.377623E+00   0.483928E+01
   0.252000E+04   0.697753E-04   0.848150E-04   0.377617E+00   0.483928E+01
   0.253000E+04   0.702702E-04   0.853559E-04   0.377605E+00   0.483928E+01
   0.254000E+04   0.707650E-04   0.858952E-04   0.377607E+00   0.483928E+01
   0.255000E+04   0.712596E-04   0.864328E-04   0.377610E+00   0.483928E+01
   0.256000E+04   0.717536E-04   0.869685E-04   0.377602E+00   0.483928E+01
   0.257000E+04   0.722470E-04   0.875027E-04   0.377593E+00   0.483928E+01
   0.258000E+04   0.727403E-04   0.880355E-04   0.377590E+00   0.483928E+01
   0.259000E+04   0.732337E-04   0.885670E-04   0.377594E+00   0.483928E+01
   0.260000E+04   0.737270E-04   0.890973E-04   0.377594E+00   0.483928E+01
   0.261000E+04   0.742205E-04   0.896268E-04   0.377590E+00   0.483928E+01
   0.262000E+04   0.747149E-04   0.901565E-04   0.377580E+00   0.483928E+01
   0.263000E+04   0.752106E-04   0.906870E-04   0.377582E+00   0.483928E+01
   0.264000E+04   0.757080E-04   0.912187E-04   0.377586E+00   0.483928E+01
   0.265000E+04   0.762062E-04   0.917515E-04   0.377569E+00   0.483928E+01
   0.266000E+04   0.767056E-04   0.922853E-04   0.377574E+00   0.483928E+01
   0.267000E+04   0.772056E-04   0.928194E-04   0.377577E+00   0.483928E+01
   0.268000E+04   0.777062E-04   0.933536E-04   0.377578E+00   0.483928E+01
   0.269000E+04   0.782071E-04   0.938878E-04   0.377580E+00   0.483928E+01
   0.270000E+04   0.787086E-04   0.944217E-04   0.377584E+00   0.483928E+01
   0.271000E+04   0.792104E-04   0.949552E-04   0.377586E+00   0.483928E+01
   0.272000E+04   0.797121E-04   0.954875E-04   0.377581E+00   0.483928E+01
   0.273000E+04   0.802132E-04   0.960186E-04   0.377565E+00   0.483928E+01
   0.274000E+04   0.807139E-04   0.965480E-04   0.377560E+00   0.483928E+01
   0.275000E+04   0.812135E-04   0.970749E-04   0.377563E+00   0.483928E+01
   0.276000E+04   0.817112E-04   0.975988E-04   0.377562E+00   0.483928E+01
   0.277000E+04   0.822066E-04   0.981185E-04   0.377555E+00   0.483928E+01
   0.278000E+04   0.827000E-04   0.986345E-04   0.377548E+00   0.483928E+01
   0.279000E+04   0.831918E-04   0.991473E-04   0.377550E+00   0.483928E+01
   0.280000E+04   0.836818E-04   0.996565E-04   0.377553E+00   0.483928E+01
   0.281000E+04   0.841698E-04   0.100162E-03   0.377548E+00   0.483928E+01
   0.282000E+04   0.846560E-04   0.100664E-03   0.377543E+00   0.483928E+01
   0.283000E+04   0.851416E-04   0.101163E-03   0.377544E+00   0.483928E+01
   0.284000E+04   0.856259E-04   0.101661E-03   0.377541E+00   0.483928E+01
   0.285000E+04   0.861095E-04   0.102156E-03   0.377540E+00   0.483928E+01
   0.286000E+04   0.865924E-04   0.102650E-03   0.377544E+00   0.483928E+01
   0.287000E+04   0.870746E-04   0.103141E-03   0.377548E+00   0.483928E+01
   0.288000E+04   0.875556E-04   0.103631E-03   0.377544E+00   0.483928E+01
   0.289000E+04   0.880352E-04   0.104118E-03   0.377538E+00   0.483928E+01
   0.290000E+04   0.885140E-04   0.104602E-03   0.377534E+00   0.483928E+01
   0.291000E+04   0.889916E-04   0.105084E-03   0.377538E+00   0.483928E+01
   0.292000E+04   0.894671E-04   0.105563E-03   0.377533E+00   0.483928E+01
   0.293000E+04   0.899405E-04   0.106038E-03   0.377524E+00   0.483928E+01
   0.294000E+04   0.904125E-04   0.106510E-03   0.377519E+00   0.483928E+01
   0.295000E+04   0.908823E-04   0.106979E-03   0.377521E+00   0.483928E+01
   0.296000E+04   0.913501E-04   0.107444E-03   0.377518E+00   0.483928E+01
   0.297000E+04   0.918158E-04   0.107906E-03   0.377521E+00   0.483928E+01
   0.298000E+04   0.922798E-04   0.108365E-03   0.377526E+00   0.483928E+01
   0.299000E+04   0.927417E-04   0.108820E-03   0.377525E+00   0.483928E+01
   0.300000E+04   0.932015E-04   0.109272E-03   0.377519E+00   0.483928E+01
   0.301000E+04   0.936600E-04   0.109721E-03   0.377508E+00   0.483928E+01
   0.302000E+04   0.941169E-04   0.110168E-03   0.377511E+00   0.483928E+01
   0.303000E+04   0.945718E-04   0.110612E-03   0.377503E+00   0.483928E+01
   0.304000E+04   0.950247E-04   0.111053E-03   0.377506E+00   0.483928E+01
   0.305000E+04   0.954760E-04   0.111491E-03   0.377512E+00   0.483928E+01
   0.306000E+04   0.959252E-04   0.111926E-03   0.377506E+00   0.483928E+01
   0.307000E+04   0.963730E-04   0.112359E-03   0.377507E+00   0.483928E+01
   0.308000E+04   0.968190E-04   0.112789E-03   0.377512E+00   0.483928E+01
   0.309000E+04   0.972631E-04   0.113216E-03   0.377513E+00   0.483928E+01
   0.310000E+04   0.977054E-04   0.113640E-03   0.377499E+00   0.483928E+01
   0.311000E+04   0.981466E-04   0.114063E-03   0.377492E+00   0.483928E+01
   0.312000E+04   0.985863E-04   0.114483E-03   0.377496E+00   0.483928E+01
   0.313000E+04   0.990242E-04   0.114901E-03   0.377496E+00   0.483928E+01
   0.314000E+04   0.994600E-04   0.115316E-03   0.377490E+00   0.483928E+01
   0.315000E+04   0.998947E-04   0.115729E-03   0.377482E+00   0.483928E+01
   0.316000E+04   0.100329E-03   0.116141E-03   0.377481E+00   0.483928E+01
   0.317000E+04   0.100764E-03   0.116554E-03   0.377486E+00   0.483928E+01
   0.318000E+04   0.101199E-03   0.116966E-03   0.377482E+00   0.483928E+01
   0.319000E+04   0.101634E-03   0.117380E-03   0.377474E+00   0.483928E+01
   0.320000E+04   0.102070E-03   0.117794E-03   0.377478E+00   0.483928E+01
   0.321000E+04   0.102507E-03   0.118210E-03   0.377478E+00   0.483928E+01
   0.322000E+04   0.102946E-03   0.118627E-03   0.377477E+00   0.483928E+01
   0.323000E+04   0.103386E-03   0.119047E-03   0.377480E+00   0.483928E+01
   0.324000E+04   0.103827E-03   0.119510E-03   0.377485E+00   0.483928E+01
   0.325000E+04   0.104270E-03   0.120113E-03   0.377490E+00   0.483928E+01
   0.326000E+04   0.104713E-03   0.120717E-03   0.377476E+00   0.483928E+01
   0.327000E+04   0.105158E-03   0.121321E-03   0.377465E+00   0.483928E+01
   0.328000E+04   0.105603E-03   0.121927E-03   0.377467E+00   0.483928E+01
   0.329000E+04   0.106049E-03   0.122534E-03   0.377471E+00   0.483928E+01
   0.330000E+04   0.106494E-03   0.123141E-03   0.377455E+00   0.483928E+01
   0.331000E+04   0.106939E-03   0.123748E-03   0.377461E+00   0.483928E+01
   0.332000E+04   0.107383E-03   0.124355E-03   0.377464E+00   0.483928E+01
   0.333000E+04   0.107827E-03   0.124961E-03   0.377466E+00   0.483928E+01
   0.334000E+04   0.108270E-03   0.125568E-03   0.377469E+00   0.483928E+01
   0.335000E+04   0.108713E-03   0.126174E-03   0.377474E+00   0.483928E+01
   0.336000E+04   0.109157E-03   0.126781E-03   0.377477E+00   0.483928E+01
   0.337000E+04   0.109599E-03   0.127388E-03   0.377474E+00   0.483928E+01
   0.338000E+04   0.110042E-03   0.127995E-03   0.377459E+00   0.483928E+01
   0.339000E+04   0.110484E-03   0.128602E-03   0.377453E+00   0.483928E+01
   0.340000E+04   0.110926E-03   0.129210E-03   0.377458E+00   0.483928E+01
   0.341000E+04   0.111367E-03   0.129818E-03   0.377458E+00   0.483928E+01
   0.342000E+04   0.111805E-03   0.130424E-03   0.377453E+00   0.483928E+01
   0.343000E+04   0.112242E-03   0.131029E-03   0.377445E+00   0.483928E+01
   0.344000E+04   0.112679E-03   0.131633E-03   0.377443E+00   0.483928E+01
   0.345000E+04   0.113115E-03   0.132238E-03   0.377450E+00   0.483928E+01
   0.346000E+04   0.113551E-03   0.132841E-03   0.377446E+00   0.483928E+01
   0.347000E+04   0.113986E-03   0.133443E-03   0.377439E+00   0.483928E+01
   0.348000E+04   0.114422E-03   0.134045E-03   0.377441E+00   0.483928E+01
   0.349000E+04   0.114858E-03   0.134646E-03   0.377442E+00   0.483928E+01
   0.350000E+04   0.115294E-03   0.135247E-03   0.377442E+00   0.483928E+01
   0.351000E+04   0.115732E-03   0.135848E-03   0.377445E+00   0.483928E+01
   0.352000E+04   0.116170E-03   0.136449E-03   0.377452E+00   0.483928E+01
   0.353000E+04   0.116610E-03   0.137050E-03   0.377456E+00   0.483928E+01
   0.354000E+04   0.117050E-03   0.137651E-03   0.377440E+00   0.483928E+01
   0.355000E+04   0.117491E-03   0.138252E-03   0.377430E+00   0.483928E+01
   0.356000E+04   0.117933E-03   0.138853E-03   0.377429E+00   0.483928E+01
   0.357000E+04   0.118375E-03   0.139455E-03   0.377432E+00   0.483928E+01
   0.358000E+04   0.118817E-03   0.140057E-03   0.377431E+00   0.483928E+01
   0.359000E+04   0.119260E-03   0.140658E-03   0.377431E+00   0.483928E+01
   0.360000E+04   0.119705E-03   0.141260E-03   0.377430E+00   0.483928E+01
   0.361000E+04   0.120152E-03   0.141863E-03   0.377429E+00   0.483928E+01
   0.362000E+04   0.120601E-03   0.142468E-03   0.377429E+00   0.483928E+01
   0.363000E+04   0.121053E-03   0.143074E-03   0.377433E+00   0.483928E+01
   0.364000E+04   0.121506E-03   0.143682E-03   0.377439E+00   0.483928E+01
   0.365000E+04   0.121961E-03   0.144291E-03   0.377444E+00   0.483928E+01
   0.366000E+04   0.122417E-03   0.144902E-03   0.377431E+00   0.483928E+01
   0.367000E+04   0.122874E-03   0.145515E-03   0.377421E+00   0.483928E+01
   0.368000E+04   0.123332E-03   0.146129E-03   0.377424E+00   0.483928E+01
   0.369000E+04   0.123789E-03   0.146744E-03   0.377429E+00   0.483928E+01
   0.370000E+04   0.124245E-03   0.147358E-03   0.377411E+00   0.483928E+01
   0.371000E+04   0.124700E-03   0.147972E-03   0.377417E+00   0.483928E+01
   0.372000E+04   0.125152E-03   0.148585E-03   0.377422E+00   0.483928E+01
   0.373000E+04   0.125602E-03   0.149195E-03   0.377423E+00   0.483928E+01
   0.374000E+04   0.126050E-03   0.149804E-03   0.377426E+00   0.483928E+01
   0.375000E+04   0.126497E-03   0.150412E-03   0.377431E+00   0.483928E+01
   0.376000E+04   0.126942E-03   0.151017E-03   0.377435E+00   0.483928E+01
   0.377000E+04   0.127385E-03   0.151621E-03   0.377433E+00   0.483928E+01
   0.378000E+04   0.127825E-03   0.152222E-03   0.377418E+00   0.483928E+01
   0.379000E+04   0.128264E-03   0.152822E-03   0.377411E+00   0.483928E+01
   0.380000E+04   0.128701E-03   0.153420E-03   0.377415E+00   0.483928E+01
   0.381000E+04   0.129135E-03   0.154015E-03   0.377416E+00   0.483928E+01
   0.382000E+04   0.129565E-03   0.154606E-03   0.377414E+00   0.483928E+01
   0.383000E+04   0.129993E-03   0.155194E-03   0.377407E+00   0.483928E+01
   0.384000E+04   0.130418E-03   0.155779E-03   0.377404E+00   0.483928E+01
   0.385000E+04   0.130842E-03   0.156362E-03   0.377408E+00   0.483928E+01
   0.386000E+04   0.131264E-03   0.156941E-03   0.377405E+00   0.483928E+01
   0.387000E+04   0.131684E-03   0.157517E-03   0.377404E+00   0.483928E+01
   0.388000E+04   0.132103E-03   0.158090E-03   0.377400E+00   0.483928E+01
   0.389000E+04   0.132523E-03   0.158662E-03   0.377402E+00   0.483928E+01
   0.390000E+04   0.132943E-03   0.159232E-03   0.377406E+00   0.483928E+01
   0.391000E+04   0.133364E-03   0.159801E-03   0.377397E+00   0.483928E+01
   0.392000E+04   0.133785E-03   0.160368E-03   0.377391E+00   0.483928E+01
   0.393000E+04   0.134207E-03   0.160934E-03   0.377393E+00   0.483928E+01