variables="x","h","c"
zone i=     42,T= "1dxhc;t= 0.1500E+03y,z:   1   1"
    0.00000E+00    0.50000E+00    0.00000E+00
    0.24878E+01    0.48782E+00    0.25791E-20
    0.49756E+01    0.48027E+00    0.88089E-20
    0.74634E+01    0.47513E+00    0.11682E-19
    0.99512E+01    0.46720E+00    0.21444E-19
    0.12439E+02    0.46298E+00    0.29790E-19
    0.14927E+02    0.45710E+00    0.57958E-19
    0.17415E+02    0.45243E+00    0.27445E-18
    0.19902E+02    0.44938E+00    0.10198E-17
    0.22390E+02    0.44536E+00    0.49757E-17
    0.24878E+02    0.44337E+00    0.12601E-16
    0.27366E+02    0.44135E+00    0.14958E-16
    0.29854E+02    0.43744E+00    0.29154E-16
    0.32341E+02    0.43485E+00    0.37343E-17
    0.34829E+02    0.42584E+00    0.10320E-16
    0.37317E+02    0.42053E+00    0.14128E-16
    0.39805E+02    0.41498E+00    0.13949E-15
    0.42293E+02    0.41057E+00    0.24880E-14
    0.44780E+02    0.40460E+00    0.55604E-13
    0.47268E+02    0.40107E+00    0.64308E-12
    0.49756E+02    0.39713E+00    0.59379E-11
    0.52244E+02    0.39353E+00    0.53789E-10
    0.54732E+02    0.38974E+00    0.21533E-09
    0.57220E+02    0.38426E+00    0.12030E-08
    0.59707E+02    0.37666E+00    0.11940E-07
    0.62195E+02    0.36863E+00    0.58215E-07
    0.64683E+02    0.35807E+00    0.24257E-06
    0.67171E+02    0.35115E+00    0.96918E-06
    0.69659E+02    0.34627E+00    0.37701E-05
    0.72146E+02    0.34142E+00    0.14235E-04
    0.74634E+02    0.33594E+00    0.36912E-04
    0.77122E+02    0.33071E+00    0.83318E-04
    0.79610E+02    0.32368E+00    0.17445E-03
    0.82098E+02    0.31695E+00    0.63407E-03
    0.84585E+02    0.31187E+00    0.24160E-02
    0.87073E+02    0.31136E+00    0.92661E-02
    0.89561E+02    0.31780E+00    0.85668E-01
    0.92049E+02    0.32599E+00    0.15793E+00
    0.94537E+02    0.35375E+00    0.39306E+00
    0.97024E+02    0.37247E+00    0.58496E+00
    0.99512E+02    0.39669E+00    0.81092E+00
    0.10200E+03    0.40011E+00    0.10000E+01
zone i=     42,T= "1dxhc;t= 0.1500E+03y,z:   1  12"
    0.00000E+00    0.50000E+00    0.00000E+00
    0.24878E+01    0.48868E+00    0.11070E-21
    0.49756E+01    0.48081E+00    0.38268E-21
    0.74634E+01    0.47356E+00    0.14296E-20
    0.99512E+01    0.46855E+00    0.40029E-20
    0.12439E+02    0.46446E+00    0.15909E-19
    0.14927E+02    0.45927E+00    0.57390E-19
    0.17415E+02    0.45150E+00    0.45635E-18
    0.19902E+02    0.44791E+00    0.21566E-17
    0.22390E+02    0.44547E+00    0.52424E-17
    0.24878E+02    0.44320E+00    0.34785E-16
    0.27366E+02    0.43958E+00    0.24174E-15
    0.29854E+02    0.43497E+00    0.10997E-14
    0.32341E+02    0.42768E+00    0.28823E-14
    0.34829E+02    0.42304E+00    0.28813E-14
    0.37317E+02    0.41832E+00    0.12157E-13
    0.39805E+02    0.41365E+00    0.95361E-13
    0.42293E+02    0.40944E+00    0.13775E-11
    0.44780E+02    0.40633E+00    0.26980E-11
    0.47268E+02    0.40169E+00    0.57895E-11
    0.49756E+02    0.39908E+00    0.12418E-10
    0.52244E+02    0.39564E+00    0.59355E-10
    0.54732E+02    0.39236E+00    0.89081E-10
    0.57220E+02    0.38571E+00    0.49205E-09
    0.59707E+02    0.37870E+00    0.81563E-09
    0.62195E+02    0.36812E+00    0.18462E-08
    0.64683E+02    0.35958E+00    0.31741E-08
    0.67171E+02    0.35306E+00   -0.93761E-08
    0.69659E+02    0.34672E+00   -0.11795E-06
    0.72146E+02    0.33982E+00    0.15766E-05
    0.74634E+02    0.33173E+00    0.16319E-04
    0.77122E+02    0.32299E+00    0.84832E-04
    0.79610E+02    0.31349E+00    0.42557E-03
    0.82098E+02    0.30590E+00    0.11222E-02
    0.84585E+02    0.29766E+00    0.14223E-02
    0.87073E+02    0.28858E+00    0.39320E-02
    0.89561E+02    0.27956E+00    0.14204E-01
    0.92049E+02    0.27004E+00    0.62586E-01
    0.94537E+02    0.25559E+00    0.15712E+00
    0.97024E+02    0.23532E+00    0.30733E+00
    0.99512E+02    0.19904E+00    0.55024E+00
    0.10200E+03    0.16005E+00    0.10000E+01
zone i=     42,T= "1dxhc;t= 0.1500E+03y,z:   1  22"
    0.00000E+00    0.49822E+00   -0.18822E-17
    0.24878E+01    0.49028E+00   -0.53927E-17
    0.49756E+01    0.48459E+00   -0.13476E-16
    0.74634E+01    0.47469E+00   -0.28572E-16
    0.99512E+01    0.46258E+00   -0.13863E-15
    0.12439E+02    0.45532E+00   -0.45733E-15
    0.14927E+02    0.45067E+00   -0.20718E-14
    0.17415E+02    0.44701E+00   -0.12471E-13
    0.19902E+02    0.44356E+00   -0.43026E-13
    0.22390E+02    0.43648E+00   -0.15409E-12
    0.24878E+02    0.41335E+00   -0.66085E-12
    0.27366E+02    0.38432E+00   -0.27280E-11
    0.29854E+02    0.36774E+00   -0.83712E-11
    0.32341E+02    0.34697E+00   -0.29063E-10
    0.34829E+02    0.33979E+00   -0.68721E-10
    0.37317E+02    0.33198E+00   -0.13180E-09
    0.39805E+02    0.32560E+00   -0.20334E-09
    0.42293E+02    0.32025E+00   -0.43804E-09
    0.44780E+02    0.31439E+00   -0.10427E-08
    0.47268E+02    0.30693E+00   -0.35319E-08
    0.49756E+02    0.30034E+00   -0.11132E-07
    0.52244E+02    0.29467E+00   -0.24099E-07
    0.54732E+02    0.29112E+00   -0.42224E-07
    0.57220E+02    0.28573E+00   -0.80664E-07
    0.59707E+02    0.27771E+00   -0.17445E-06
    0.62195E+02    0.26601E+00   -0.29038E-06
    0.64683E+02    0.25419E+00   -0.43120E-06
    0.67171E+02    0.24003E+00   -0.79050E-06
    0.69659E+02    0.23283E+00   -0.87034E-06
    0.72146E+02    0.22664E+00   -0.72669E-06
    0.74634E+02    0.22345E+00   -0.11124E-05
    0.77122E+02    0.21569E+00   -0.12328E-05
    0.79610E+02    0.19713E+00   -0.16767E-05
    0.82098E+02    0.16910E+00   -0.22289E-05
    0.84585E+02    0.12954E+00   -0.48844E-05
    0.87073E+02    0.95234E-01   -0.12275E-05
    0.89561E+02    0.74706E-01    0.38868E-04
    0.92049E+02    0.58127E-01    0.38804E-04
    0.94537E+02    0.46968E-01    0.17126E-03
    0.97024E+02    0.38791E-01   -0.27666E-03
    0.99512E+02    0.22082E-01    0.12811E-03
    0.10200E+03    0.51006E-02    0.18184E-03
zone i=     42,T= "1dxhc;t= 0.3000E+03y,z:   1   1"
    0.00000E+00    0.50000E+00    0.00000E+00
    0.24878E+01    0.48789E+00    0.32603E-17
    0.49756E+01    0.48039E+00    0.10505E-16
    0.74634E+01    0.47529E+00    0.13763E-16
    0.99512E+01    0.46740E+00    0.24641E-16
    0.12439E+02    0.46321E+00    0.33359E-16
    0.14927E+02    0.45737E+00    0.60248E-16
    0.17415E+02    0.45272E+00    0.24865E-15
    0.19902E+02    0.44969E+00    0.78198E-15
    0.22390E+02    0.44569E+00    0.32107E-14
    0.24878E+02    0.44371E+00    0.68338E-14
    0.27366E+02    0.44170E+00    0.74558E-14
    0.29854E+02    0.43781E+00    0.13569E-13
    0.32341E+02    0.43524E+00    0.20718E-14
    0.34829E+02    0.42628E+00    0.65118E-14
    0.37317E+02    0.42100E+00    0.94569E-14
    0.39805E+02    0.41548E+00    0.81764E-13
    0.42293E+02    0.41110E+00    0.10930E-11
    0.44780E+02    0.40516E+00    0.17613E-10
    0.47268E+02    0.40165E+00    0.14762E-09
    0.49756E+02    0.39773E+00    0.10125E-08
    0.52244E+02    0.39415E+00    0.67143E-08
    0.54732E+02    0.39038E+00    0.20397E-07
    0.57220E+02    0.38492E+00    0.86409E-07
    0.59707E+02    0.37736E+00    0.60995E-06
    0.62195E+02    0.36937E+00    0.21738E-05
    0.64683E+02    0.35887E+00    0.70574E-05
    0.67171E+02    0.35199E+00    0.21822E-04
    0.69659E+02    0.34716E+00    0.67073E-04
    0.72146E+02    0.34242E+00    0.20903E-03
    0.74634E+02    0.33712E+00    0.51164E-03
    0.77122E+02    0.33218E+00    0.12259E-02
    0.79610E+02    0.32586E+00    0.29705E-02
    0.82098E+02    0.32087E+00    0.98055E-02
    0.84585E+02    0.32002E+00    0.15033E-01
    0.87073E+02    0.32821E+00    0.15941E+00
    0.89561E+02    0.33971E+00    0.28740E+00
    0.92049E+02    0.34901E+00    0.36944E+00
    0.94537E+02    0.37142E+00    0.55887E+00
    0.97024E+02    0.38458E+00    0.67395E+00
    0.99512E+02    0.40170E+00    0.86084E+00
    0.10200E+03    0.40011E+00    0.10000E+01
zone i=     42,T= "1dxhc;t= 0.3000E+03y,z:   1  12"
    0.00000E+00    0.50000E+00    0.00000E+00
    0.24878E+01    0.48875E+00    0.17354E-18
    0.49756E+01    0.48092E+00    0.56851E-18
    0.74634E+01    0.47372E+00    0.18474E-17
    0.99512E+01    0.46874E+00    0.44777E-17
    0.12439E+02    0.46467E+00    0.15280E-16
    0.14927E+02    0.45952E+00    0.46248E-16
    0.17415E+02    0.45179E+00    0.30024E-15
    0.19902E+02    0.44822E+00    0.11258E-14
    0.22390E+02    0.44580E+00    0.22887E-14
    0.24878E+02    0.44354E+00    0.12885E-13
    0.27366E+02    0.43994E+00    0.71111E-13
    0.29854E+02    0.43535E+00    0.25980E-12
    0.32341E+02    0.42811E+00    0.56309E-12
    0.34829E+02    0.42349E+00    0.38737E-12
    0.37317E+02    0.41880E+00    0.13371E-11
    0.39805E+02    0.41416E+00    0.10071E-10
    0.42293E+02    0.40997E+00    0.12823E-09
    0.44780E+02    0.40688E+00    0.19463E-09
    0.47268E+02    0.40226E+00    0.34759E-09
    0.49756E+02    0.39967E+00    0.66664E-09
    0.52244E+02    0.39624E+00    0.28685E-08
    0.54732E+02    0.39298E+00    0.34047E-08
    0.57220E+02    0.38636E+00    0.16324E-07
    0.59707E+02    0.37938E+00    0.19237E-07
    0.62195E+02    0.36883E+00    0.33710E-07
    0.64683E+02    0.36030E+00    0.38839E-07
    0.67171E+02    0.35376E+00   -0.19214E-06
    0.69659E+02    0.34734E+00   -0.15388E-05
    0.72146E+02    0.34023E+00    0.14080E-04
    0.74634E+02    0.33171E+00    0.10791E-03
    0.77122E+02    0.32231E+00    0.43281E-03
    0.79610E+02    0.31176E+00    0.16818E-02
    0.82098E+02    0.30307E+00    0.37679E-02
    0.84585E+02    0.29332E+00    0.48805E-02
    0.87073E+02    0.28237E+00    0.11994E-01
    0.89561E+02    0.27201E+00    0.30563E-01
    0.92049E+02    0.26216E+00    0.86888E-01
    0.94537E+02    0.24829E+00    0.18131E+00
    0.97024E+02    0.22942E+00    0.32754E+00
    0.99512E+02    0.19595E+00    0.56280E+00
    0.10200E+03    0.16005E+00    0.10000E+01
zone i=     42,T= "1dxhc;t= 0.3000E+03y,z:   1  22"
    0.00000E+00    0.49822E+00   -0.85156E-15
    0.24878E+01    0.49028E+00   -0.20451E-14
    0.49756E+01    0.48459E+00   -0.48343E-14
    0.74634E+01    0.47470E+00   -0.93411E-14
    0.99512E+01    0.46259E+00   -0.36321E-13
    0.12439E+02    0.45534E+00   -0.94594E-13
    0.14927E+02    0.45068E+00   -0.34679E-12
    0.17415E+02    0.44703E+00   -0.15197E-11
    0.19902E+02    0.44358E+00   -0.40222E-11
    0.22390E+02    0.43650E+00   -0.11413E-10
    0.24878E+02    0.41337E+00   -0.37007E-10
    0.27366E+02    0.38434E+00   -0.11304E-09
    0.29854E+02    0.36776E+00   -0.26436E-09
    0.32341E+02    0.34700E+00   -0.69783E-09
    0.34829E+02    0.33981E+00   -0.13649E-08
    0.37317E+02    0.33201E+00   -0.23723E-08
    0.39805E+02    0.32562E+00   -0.36178E-08
    0.42293E+02    0.32028E+00   -0.68677E-08
    0.44780E+02    0.31441E+00   -0.13245E-07
    0.47268E+02    0.30695E+00   -0.33354E-07
    0.49756E+02    0.30036E+00   -0.76800E-07
    0.52244E+02    0.29469E+00   -0.13752E-06
    0.54732E+02    0.29114E+00   -0.21469E-06
    0.57220E+02    0.28575E+00   -0.36558E-06
    0.59707E+02    0.27773E+00   -0.67296E-06
    0.62195E+02    0.26601E+00   -0.10374E-05
    0.64683E+02    0.25419E+00   -0.14873E-05
    0.67171E+02    0.24002E+00   -0.25227E-05
    0.69659E+02    0.23282E+00   -0.31333E-05
    0.72146E+02    0.22663E+00   -0.37832E-05
    0.74634E+02    0.22344E+00   -0.60091E-05
    0.77122E+02    0.21567E+00   -0.72075E-05
    0.79610E+02    0.19711E+00   -0.87649E-05
    0.82098E+02    0.16907E+00   -0.11780E-04
    0.84585E+02    0.12950E+00   -0.21013E-04
    0.87073E+02    0.95181E-01   -0.15768E-04
    0.89561E+02    0.74644E-01    0.22616E-04
    0.92049E+02    0.58061E-01    0.35264E-04
    0.94537E+02    0.46908E-01    0.17576E-03
    0.97024E+02    0.38741E-01   -0.30947E-03
    0.99512E+02    0.22058E-01    0.12149E-03
    0.10200E+03    0.50963E-02    0.22016E-03
zone i=     42,T= "1dxhc;t= 0.4500E+03y,z:   1   1"
    0.00000E+00    0.50000E+00    0.00000E+00
    0.24878E+01    0.48794E+00    0.26975E-15
    0.49756E+01    0.48047E+00    0.84034E-15
    0.74634E+01    0.47539E+00    0.11141E-14
    0.99512E+01    0.46754E+00    0.19772E-14
    0.12439E+02    0.46337E+00    0.26794E-14
    0.14927E+02    0.45755E+00    0.46485E-14
    0.17415E+02    0.45293E+00    0.17102E-13
    0.19902E+02    0.44991E+00    0.47323E-13
    0.22390E+02    0.44593E+00    0.16982E-12
    0.24878E+02    0.44396E+00    0.32233E-12
    0.27366E+02    0.44195E+00    0.34457E-12
    0.29854E+02    0.43808E+00    0.61206E-12
    0.32341E+02    0.43552E+00    0.12117E-12
    0.34829E+02    0.42660E+00    0.37985E-12
    0.37317E+02    0.42134E+00    0.57058E-12
    0.39805E+02    0.41585E+00    0.42352E-11
    0.42293E+02    0.41149E+00    0.43860E-10
    0.44780E+02    0.40558E+00    0.53621E-09
    0.47268E+02    0.40209E+00    0.34517E-08
    0.49756E+02    0.39819E+00    0.19042E-07
    0.52244E+02    0.39464E+00    0.99744E-07
    0.54732E+02    0.39089E+00    0.25337E-06
    0.57220E+02    0.38547E+00    0.89981E-06
    0.59707E+02    0.37796E+00    0.50223E-05
    0.62195E+02    0.37003E+00    0.14816E-04
    0.64683E+02    0.35963E+00    0.42100E-04
    0.67171E+02    0.35283E+00    0.11383E-03
    0.69659E+02    0.34811E+00    0.30934E-03
    0.72146E+02    0.34353E+00    0.87112E-03
    0.74634E+02    0.33851E+00    0.20942E-02
    0.77122E+02    0.33402E+00    0.51917E-02
    0.79610E+02    0.32872E+00    0.13807E-01
    0.82098E+02    0.32677E+00    0.16970E-01
    0.84585E+02    0.33085E+00    0.16067E+00
    0.87073E+02    0.34255E+00    0.31988E+00
    0.89561E+02    0.35373E+00    0.43645E+00
    0.92049E+02    0.36195E+00    0.50478E+00
    0.94537E+02    0.38008E+00    0.64995E+00
    0.97024E+02    0.39039E+00    0.73052E+00
    0.99512E+02    0.40417E+00    0.90531E+00
    0.10200E+03    0.40011E+00    0.10000E+01
zone i=     42,T= "1dxhc;t= 0.4500E+03y,z:   1  12"
    0.00000E+00    0.50000E+00    0.00000E+00
    0.24878E+01    0.48880E+00    0.18411E-16
    0.49756E+01    0.48100E+00    0.58058E-16
    0.74634E+01    0.47384E+00    0.17075E-15
    0.99512E+01    0.46888E+00    0.37591E-15
    0.12439E+02    0.46483E+00    0.11498E-14
    0.14927E+02    0.45969E+00    0.30780E-14
    0.17415E+02    0.45200E+00    0.17140E-13
    0.19902E+02    0.44844E+00    0.54108E-13
    0.22390E+02    0.44603E+00    0.98593E-13
    0.24878E+02    0.44378E+00    0.49158E-12
    0.27366E+02    0.44020E+00    0.22670E-11
    0.29854E+02    0.43563E+00    0.70607E-11
    0.32341E+02    0.42842E+00    0.13695E-10
    0.34829E+02    0.42382E+00    0.90213E-11
    0.37317E+02    0.41915E+00    0.24418E-10
    0.39805E+02    0.41453E+00    0.15841E-09
    0.42293E+02    0.41037E+00    0.17463E-08
    0.44780E+02    0.40729E+00    0.22804E-08
    0.47268E+02    0.40270E+00    0.37895E-08
    0.49756E+02    0.40012E+00    0.70979E-08
    0.52244E+02    0.39671E+00    0.27233E-07
    0.54732E+02    0.39347E+00    0.29516E-07
    0.57220E+02    0.38689E+00    0.12143E-06
    0.59707E+02    0.37995E+00    0.11720E-06
    0.62195E+02    0.36945E+00    0.16947E-06
    0.64683E+02    0.36095E+00    0.14478E-06
    0.67171E+02    0.35441E+00   -0.97288E-06
    0.69659E+02    0.34793E+00   -0.53831E-05
    0.72146E+02    0.34063E+00    0.44901E-04
    0.74634E+02    0.33174E+00    0.27466E-03
    0.77122E+02    0.32173E+00    0.93810E-03
    0.79610E+02    0.31024E+00    0.31049E-02
    0.82098E+02    0.30063E+00    0.63092E-02
    0.84585E+02    0.28980E+00    0.83590E-02
    0.87073E+02    0.27788E+00    0.18052E-01
    0.89561E+02    0.26716E+00    0.38567E-01
    0.92049E+02    0.25744E+00    0.95706E-01
    0.94537E+02    0.24409E+00    0.18947E+00
    0.97024E+02    0.22609E+00    0.33377E+00
    0.99512E+02    0.19423E+00    0.56605E+00
    0.10200E+03    0.16005E+00    0.10000E+01
zone i=     42,T= "1dxhc;t= 0.4500E+03y,z:   1  22"
    0.00000E+00    0.49822E+00   -0.25060E-13
    0.24878E+01    0.49029E+00   -0.52374E-13
    0.49756E+01    0.48459E+00   -0.11949E-12
    0.74634E+01    0.47470E+00   -0.22167E-12
    0.99512E+01    0.46260E+00   -0.74016E-12
    0.12439E+02    0.45534E+00   -0.16642E-11
    0.14927E+02    0.45069E+00   -0.52594E-11
    0.17415E+02    0.44703E+00   -0.18347E-10
    0.19902E+02    0.44359E+00   -0.40914E-10
    0.22390E+02    0.43651E+00   -0.99416E-10
    0.24878E+02    0.41338E+00   -0.26966E-09
    0.27366E+02    0.38435E+00   -0.68200E-09
    0.29854E+02    0.36777E+00   -0.13687E-08
    0.32341E+02    0.34701E+00   -0.30788E-08
    0.34829E+02    0.33983E+00   -0.54896E-08
    0.37317E+02    0.33202E+00   -0.92617E-08
    0.39805E+02    0.32564E+00   -0.14357E-07
    0.42293E+02    0.32029E+00   -0.25513E-07
    0.44780E+02    0.31442E+00   -0.43787E-07
    0.47268E+02    0.30696E+00   -0.93438E-07
    0.49756E+02    0.30037E+00   -0.18166E-06
    0.52244E+02    0.29470E+00   -0.29587E-06
    0.54732E+02    0.29115E+00   -0.44435E-06
    0.57220E+02    0.28575E+00   -0.72405E-06
    0.59707E+02    0.27773E+00   -0.12523E-05
    0.62195E+02    0.26601E+00   -0.18978E-05
    0.64683E+02    0.25419E+00   -0.27237E-05
    0.67171E+02    0.24001E+00   -0.45084E-05
    0.69659E+02    0.23281E+00   -0.58849E-05
    0.72146E+02    0.22661E+00   -0.79106E-05
    0.74634E+02    0.22343E+00   -0.12165E-04
    0.77122E+02    0.21565E+00   -0.14789E-04
    0.79610E+02    0.19708E+00   -0.16868E-04
    0.82098E+02    0.16904E+00   -0.23201E-04
    0.84585E+02    0.12947E+00   -0.37831E-04
    0.87073E+02    0.95151E-01   -0.34674E-04
    0.89561E+02    0.74614E-01    0.14012E-06
    0.92049E+02    0.58033E-01    0.19844E-04
    0.94537E+02    0.46883E-01    0.15595E-03
    0.97024E+02    0.38720E-01   -0.33637E-03
    0.99512E+02    0.22046E-01    0.10008E-03
    0.10200E+03    0.50935E-02    0.18057E-03
zone i=     42,T= "1dxhc;t= 0.6000E+03y,z:   1   1"
    0.00000E+00    0.50000E+00    0.00000E+00
    0.24878E+01    0.48798E+00    0.52389E-14
    0.49756E+01    0.48053E+00    0.15996E-13
    0.74634E+01    0.47547E+00    0.21674E-13
    0.99512E+01    0.46763E+00    0.38568E-13
    0.12439E+02    0.46348E+00    0.53090E-13
    0.14927E+02    0.45768E+00    0.90558E-13
    0.17415E+02    0.45307E+00    0.30306E-12
    0.19902E+02    0.45006E+00    0.76151E-12
    0.22390E+02    0.44609E+00    0.24668E-11
    0.24878E+02    0.44413E+00    0.43737E-11
    0.27366E+02    0.44213E+00    0.48003E-11
    0.29854E+02    0.43827E+00    0.85279E-11
    0.32341E+02    0.43572E+00    0.22281E-11
    0.34829E+02    0.42684E+00    0.65419E-11
    0.37317E+02    0.42160E+00    0.10034E-10
    0.39805E+02    0.41613E+00    0.64631E-10
    0.42293E+02    0.41178E+00    0.54167E-09
    0.44780E+02    0.40590E+00    0.52991E-08
    0.47268E+02    0.40243E+00    0.27744E-07
    0.49756E+02    0.39854E+00    0.13096E-06
    0.52244E+02    0.39501E+00    0.57415E-06
    0.54732E+02    0.39129E+00    0.12936E-05
    0.57220E+02    0.38590E+00    0.40567E-05
    0.59707E+02    0.37845E+00    0.19048E-04
    0.62195E+02    0.37060E+00    0.49508E-04
    0.64683E+02    0.36031E+00    0.12897E-03
    0.67171E+02    0.35362E+00    0.31728E-03
    0.69659E+02    0.34902E+00    0.77557E-03
    0.72146E+02    0.34463E+00    0.19568E-02
    0.74634E+02    0.33997E+00    0.43692E-02
    0.77122E+02    0.33598E+00    0.96041E-02
    0.79610E+02    0.33254E+00    0.68177E-02
    0.82098E+02    0.33449E+00    0.18981E+00
    0.84585E+02    0.34117E+00    0.29825E+00
    0.87073E+02    0.35295E+00    0.44730E+00
    0.89561E+02    0.36302E+00    0.54548E+00
    0.92049E+02    0.37015E+00    0.59651E+00
    0.94537E+02    0.38545E+00    0.71333E+00
    0.97024E+02    0.39397E+00    0.77522E+00
    0.99512E+02    0.40570E+00    0.93942E+00
    0.10200E+03    0.40011E+00    0.10000E+01
zone i=     42,T= "1dxhc;t= 0.6000E+03y,z:   1  12"
    0.00000E+00    0.50000E+00    0.00000E+00
    0.24878E+01    0.48883E+00    0.47673E-15
    0.49756E+01    0.48106E+00    0.14592E-14
    0.74634E+01    0.47391E+00    0.39681E-14
    0.99512E+01    0.46897E+00    0.81383E-14
    0.12439E+02    0.46493E+00    0.22789E-13
    0.14927E+02    0.45981E+00    0.55423E-13
    0.17415E+02    0.45215E+00    0.27134E-12
    0.19902E+02    0.44860E+00    0.74588E-12
    0.22390E+02    0.44620E+00    0.12639E-11
    0.24878E+02    0.44395E+00    0.56775E-11
    0.27366E+02    0.44039E+00    0.22503E-10
    0.29854E+02    0.43583E+00    0.61690E-10
    0.32341E+02    0.42864E+00    0.10935E-09
    0.34829E+02    0.42406E+00    0.71051E-10
    0.37317E+02    0.41941E+00    0.16745E-09
    0.39805E+02    0.41481E+00    0.95889E-09
    0.42293E+02    0.41066E+00    0.91130E-08
    0.44780E+02    0.40760E+00    0.11040E-07
    0.47268E+02    0.40303E+00    0.18064E-07
    0.49756E+02    0.40046E+00    0.33375E-07
    0.52244E+02    0.39707E+00    0.11423E-06
    0.54732E+02    0.39385E+00    0.11998E-06
    0.57220E+02    0.38731E+00    0.42791E-06
    0.59707E+02    0.38041E+00    0.36966E-06
    0.62195E+02    0.36997E+00    0.45788E-06
    0.64683E+02    0.36151E+00    0.32085E-06
    0.67171E+02    0.35498E+00   -0.26119E-05
    0.69659E+02    0.34844E+00   -0.10268E-04
    0.72146E+02    0.34096E+00    0.92200E-04
    0.74634E+02    0.33168E+00    0.47577E-03
    0.77122E+02    0.32110E+00    0.14528E-02
    0.79610E+02    0.30880E+00    0.42999E-02
    0.82098E+02    0.29845E+00    0.81778E-02
    0.84585E+02    0.28686E+00    0.10847E-01
    0.87073E+02    0.27443E+00    0.21720E-01
    0.89561E+02    0.26362E+00    0.42702E-01
    0.92049E+02    0.25405E+00    0.10010E+00
    0.94537E+02    0.24109E+00    0.19351E+00
    0.97024E+02    0.22371E+00    0.33665E+00
    0.99512E+02    0.19300E+00    0.56724E+00
    0.10200E+03    0.16005E+00    0.10000E+01
zone i=     42,T= "1dxhc;t= 0.6000E+03y,z:   1  22"
    0.00000E+00    0.49822E+00   -0.21008E-12
    0.24878E+01    0.49029E+00   -0.39458E-12
    0.49756E+01    0.48459E+00   -0.88110E-12
    0.74634E+01    0.47470E+00   -0.16101E-11
    0.99512E+01    0.46260E+00   -0.48440E-11
    0.12439E+02    0.45534E+00   -0.99115E-11
    0.14927E+02    0.45069E+00   -0.28077E-10
    0.17415E+02    0.44704E+00   -0.83038E-10
    0.19902E+02    0.44359E+00   -0.16534E-09
    0.22390E+02    0.43651E+00   -0.36125E-09
    0.24878E+02    0.41338E+00   -0.87196E-09
    0.27366E+02    0.38436E+00   -0.19575E-08
    0.29854E+02    0.36778E+00   -0.35949E-08
    0.32341E+02    0.34702E+00   -0.73417E-08
    0.34829E+02    0.33983E+00   -0.12454E-07
    0.37317E+02    0.33203E+00   -0.20802E-07
    0.39805E+02    0.32564E+00   -0.32697E-07
    0.42293E+02    0.32029E+00   -0.56074E-07
    0.44780E+02    0.31443E+00   -0.90180E-07
    0.47268E+02    0.30696E+00   -0.17389E-06
    0.49756E+02    0.30037E+00   -0.30503E-06
    0.52244E+02    0.29469E+00   -0.46909E-06
    0.54732E+02    0.29115E+00   -0.68832E-06
    0.57220E+02    0.28575E+00   -0.10933E-05
    0.59707E+02    0.27772E+00   -0.18234E-05
    0.62195E+02    0.26601E+00   -0.27225E-05
    0.64683E+02    0.25418E+00   -0.38904E-05
    0.67171E+02    0.24000E+00   -0.63075E-05
    0.69659E+02    0.23279E+00   -0.82880E-05
    0.72146E+02    0.22659E+00   -0.11479E-04
    0.74634E+02    0.22340E+00   -0.17214E-04
    0.77122E+02    0.21563E+00   -0.21147E-04
    0.79610E+02    0.19706E+00   -0.24116E-04
    0.82098E+02    0.16901E+00   -0.32901E-04
    0.84585E+02    0.12944E+00   -0.50733E-04
    0.87073E+02    0.95126E-01   -0.49005E-04
    0.89561E+02    0.74591E-01   -0.15431E-04
    0.92049E+02    0.58011E-01    0.66805E-05
    0.94537E+02    0.46862E-01    0.14220E-03
    0.97024E+02    0.38701E-01   -0.35333E-03
    0.99512E+02    0.22034E-01    0.88552E-04
    0.10200E+03    0.50908E-02    0.15907E-03
zone i=     42,T= "1dxhc;t= 0.7500E+03y,z:   1   1"
    0.00000E+00    0.50000E+00    0.00000E+00
    0.24878E+01    0.48801E+00    0.42432E-13
    0.49756E+01    0.48058E+00    0.12811E-12
    0.74634E+01    0.47552E+00    0.17815E-12
    0.99512E+01    0.46770E+00    0.32107E-12
    0.12439E+02    0.46356E+00    0.45294E-12
    0.14927E+02    0.45777E+00    0.77278E-12
    0.17415E+02    0.45317E+00    0.24010E-11
    0.19902E+02    0.45017E+00    0.56295E-11
    0.22390E+02    0.44621E+00    0.16926E-10
    0.24878E+02    0.44425E+00    0.29081E-10
    0.27366E+02    0.44226E+00    0.33856E-10
    0.29854E+02    0.43841E+00    0.60906E-10
    0.32341E+02    0.43586E+00    0.20802E-10
    0.34829E+02    0.42700E+00    0.55636E-10
    0.37317E+02    0.42178E+00    0.86249E-10
    0.39805E+02    0.41633E+00    0.48765E-09
    0.42293E+02    0.41200E+00    0.34181E-08
    0.44780E+02    0.40614E+00    0.27799E-07
    0.47268E+02    0.40268E+00    0.12315E-06
    0.49756E+02    0.39881E+00    0.51654E-06
    0.52244E+02    0.39530E+00    0.19613E-05
    0.54732E+02    0.39159E+00    0.40434E-05
    0.57220E+02    0.38624E+00    0.11504E-04
    0.59707E+02    0.37885E+00    0.47442E-04
    0.62195E+02    0.37107E+00    0.11515E-03
    0.64683E+02    0.36090E+00    0.29405E-03
    0.67171E+02    0.35432E+00    0.72884E-03
    0.69659E+02    0.34987E+00    0.18527E-02
    0.72146E+02    0.34573E+00    0.50217E-02
    0.74634E+02    0.34153E+00    0.12693E-01
    0.77122E+02    0.33842E+00    0.33303E-01
    0.79610E+02    0.33731E+00    0.50138E-01
    0.82098E+02    0.34200E+00    0.29207E+00
    0.84585E+02    0.34969E+00    0.44019E+00
    0.87073E+02    0.36063E+00    0.54363E+00
    0.89561E+02    0.36957E+00    0.62481E+00
    0.92049E+02    0.37584E+00    0.66384E+00
    0.94537E+02    0.38910E+00    0.76130E+00
    0.97024E+02    0.39637E+00    0.81118E+00
    0.99512E+02    0.40670E+00    0.96182E+00
    0.10200E+03    0.40011E+00    0.10000E+01
zone i=     42,T= "1dxhc;t= 0.7500E+03y,z:   1  12"
    0.00000E+00    0.50000E+00    0.00000E+00
    0.24878E+01    0.48886E+00    0.51507E-14
    0.49756E+01    0.48110E+00    0.15416E-13
    0.74634E+01    0.47397E+00    0.39392E-13
    0.99512E+01    0.46904E+00    0.76629E-13
    0.12439E+02    0.46501E+00    0.19952E-12
    0.14927E+02    0.45990E+00    0.44959E-12
    0.17415E+02    0.45225E+00    0.19724E-11
    0.19902E+02    0.44871E+00    0.48524E-11
    0.22390E+02    0.44632E+00    0.78422E-11
    0.24878E+02    0.44408E+00    0.32106E-10
    0.27366E+02    0.44052E+00    0.11212E-09
    0.29854E+02    0.43597E+00    0.27788E-09
    0.32341E+02    0.42880E+00    0.45964E-09
    0.34829E+02    0.42424E+00    0.30087E-09
    0.37317E+02    0.41960E+00    0.65058E-09
    0.39805E+02    0.41501E+00    0.33792E-08
    0.42293E+02    0.41088E+00    0.27871E-07
    0.44780E+02    0.40783E+00    0.32870E-07
    0.47268E+02    0.40327E+00    0.54156E-07
    0.49756E+02    0.40072E+00    0.97922E-07
    0.52244E+02    0.39734E+00    0.30294E-06
    0.54732E+02    0.39413E+00    0.31568E-06
    0.57220E+02    0.38763E+00    0.99880E-06
    0.59707E+02    0.38077E+00    0.81823E-06
    0.62195E+02    0.37039E+00    0.90405E-06
    0.64683E+02    0.36197E+00    0.57603E-06
    0.67171E+02    0.35544E+00   -0.49821E-05
    0.69659E+02    0.34884E+00   -0.13832E-04
    0.72146E+02    0.34117E+00    0.15122E-03
    0.74634E+02    0.33153E+00    0.68307E-03
    0.77122E+02    0.32042E+00    0.19144E-02
    0.79610E+02    0.30741E+00    0.52311E-02
    0.82098E+02    0.29650E+00    0.94978E-02
    0.84585E+02    0.28442E+00    0.12505E-01
    0.87073E+02    0.27175E+00    0.23997E-01
    0.89561E+02    0.26098E+00    0.45180E-01
    0.92049E+02    0.25156E+00    0.10287E+00
    0.94537E+02    0.23890E+00    0.19612E+00
    0.97024E+02    0.22197E+00    0.33851E+00
    0.99512E+02    0.19211E+00    0.56797E+00
    0.10200E+03    0.16005E+00    0.10000E+01
zone i=     42,T= "1dxhc;t= 0.7500E+03y,z:   1  22"
    0.00000E+00    0.49822E+00   -0.88851E-12
    0.24878E+01    0.49029E+00   -0.15399E-11
    0.49756E+01    0.48459E+00   -0.33979E-11
    0.74634E+01    0.47470E+00   -0.61961E-11
    0.99512E+01    0.46260E+00   -0.17384E-10
    0.12439E+02    0.45535E+00   -0.33428E-10
    0.14927E+02    0.45069E+00   -0.87293E-10
    0.17415E+02    0.44704E+00   -0.22900E-09
    0.19902E+02    0.44359E+00   -0.42216E-09
    0.22390E+02    0.43651E+00   -0.85580E-09
    0.24878E+02    0.41338E+00   -0.19078E-08
    0.27366E+02    0.38436E+00   -0.39582E-08
    0.29854E+02    0.36778E+00   -0.68726E-08
    0.32341E+02    0.34701E+00   -0.13167E-07
    0.34829E+02    0.33983E+00   -0.21622E-07
    0.37317E+02    0.33202E+00   -0.35881E-07
    0.39805E+02    0.32564E+00   -0.56852E-07
    0.42293E+02    0.32029E+00   -0.95375E-07
    0.44780E+02    0.31442E+00   -0.14744E-06
    0.47268E+02    0.30696E+00   -0.26543E-06
    0.49756E+02    0.30037E+00   -0.43343E-06
    0.52244E+02    0.29469E+00   -0.64011E-06
    0.54732E+02    0.29114E+00   -0.92199E-06
    0.57220E+02    0.28574E+00   -0.14367E-05
    0.59707E+02    0.27772E+00   -0.23346E-05
    0.62195E+02    0.26599E+00   -0.34382E-05
    0.64683E+02    0.25416E+00   -0.48803E-05
    0.67171E+02    0.23998E+00   -0.77773E-05
    0.69659E+02    0.23277E+00   -0.10186E-04
    0.72146E+02    0.22657E+00   -0.14237E-04
    0.74634E+02    0.22338E+00   -0.20974E-04
    0.77122E+02    0.21560E+00   -0.25913E-04
    0.79610E+02    0.19703E+00   -0.29950E-04
    0.82098E+02    0.16898E+00   -0.40404E-04
    0.84585E+02    0.12941E+00   -0.60135E-04
    0.87073E+02    0.95102E-01   -0.59218E-04
    0.89561E+02    0.74569E-01   -0.26380E-04
    0.92049E+02    0.57991E-01   -0.29509E-05
    0.94537E+02    0.46843E-01    0.13313E-03
    0.97024E+02    0.38684E-01   -0.36516E-03
    0.99512E+02    0.22024E-01    0.81228E-04
    0.10200E+03    0.50883E-02    0.14553E-03
zone i=     42,T= "1dxhc;t= 0.9000E+03y,z:   1   1"
    0.00000E+00    0.50000E+00    0.00000E+00
    0.24878E+01    0.48802E+00    0.19624E-12
    0.49756E+01    0.48061E+00    0.58941E-12