          Title="3D head and conc at t=   0.5000E+04 days"
          variables="x","y","z","head","conc"
          zone i=      22, j=      42, k=      42, T="3D"
  0.00000000E+00  0.00000000E+00  0.00000000E+00  0.50000000E+00  0.00000000E+00
  0.00000000E+00  0.00000000E+00  0.97610557E+00  0.50000000E+00  0.00000000E+00
  0.00000000E+00  0.00000000E+00  0.19522111E+01  0.50000000E+00  0.00000000E+00
  0.00000000E+00  0.00000000E+00  0.29283167E+01  0.50000000E+00  0.00000000E+00
  0.00000000E+00  0.00000000E+00  0.39044223E+01  0.50000000E+00  0.00000000E+00
  0.00000000E+00  0.00000000E+00  0.48805278E+01  0.50000000E+00  0.00000000E+00
  0.00000000E+00  0.00000000E+00  0.58566334E+01  0.50000000E+00  0.00000000E+00
  0.00000000E+00  0.00000000E+00  0.68327390E+01  0.50000000E+00  0.00000000E+00
  0.00000000E+00  0.00000000E+00  0.78088445E+01  0.50000000E+00  0.00000000E+00
  0.00000000E+00  0.00000000E+00  0.87849501E+01  0.50000000E+00  0.00000000E+00
  0.00000000E+00  0.00000000E+00  0.97610557E+01  0.50000000E+00  0.00000000E+00
  0.00000000E+00  0.00000000E+00  0.10737161E+02  0.50000000E+00  0.00000000E+00
  0.00000000E+00  0.00000000E+00  0.11713267E+02  0.50000000E+00  0.00000000E+00
  0.00000000E+00  0.00000000E+00  0.12689372E+02  0.50000000E+00  0.00000000E+00
  0.00000000E+00  0.00000000E+00  0.13665478E+02  0.50000000E+00  0.00000000E+00
  0.00000000E+00  0.00000000E+00  0.14641584E+02  0.50000000E+00  0.00000000E+00
  0.00000000E+00  0.00000000E+00  0.15617689E+02  0.50000000E+00  0.00000000E+00
  0.00000000E+00  0.00000000E+00  0.16593795E+02  0.50000000E+00  0.00000000E+00
  0.00000000E+00  0.00000000E+00  0.17569900E+02  0.50000000E+00  0.00000000E+00
  0.00000000E+00  0.00000000E+00  0.18546006E+02  0.50000000E+00  0.00000000E+00
  0.00000000E+00  0.00000000E+00  0.19522111E+02  0.50000000E+00  0.00000000E+00
  0.00000000E+00  0.00000000E+00  0.20498217E+02  0.49821444E+00 -0.39609475E-10
  0.00000000E+00  0.24878049E+01  0.00000000E+00  0.50000000E+00  0.00000000E+00
  0.00000000E+00  0.24878049E+01  0.97610288E+00  0.50000000E+00  0.00000000E+00
  0.00000000E+00  0.24878049E+01  0.19522058E+01  0.50000000E+00  0.00000000E+00
  0.00000000E+00  0.24878049E+01  0.29283086E+01  0.50000000E+00  0.00000000E+00
  0.00000000E+00  0.24878049E+01  0.39044115E+01  0.50000000E+00  0.00000000E+00
  0.00000000E+00  0.24878049E+01  0.48805144E+01  0.50000000E+00  0.00000000E+00
  0.00000000E+00  0.24878049E+01  0.58566173E+01  0.50000000E+00  0.00000000E+00
  0.00000000E+00  0.24878049E+01  0.68327201E+01  0.50000000E+00  0.00000000E+00
  0.00000000E+00  0.24878049E+01  0.78088230E+01  0.50000000E+00  0.00000000E+00
  0.00000000E+00  0.24878049E+01  0.87849259E+01  0.50000000E+00  0.00000000E+00
  0.00000000E+00  0.24878049E+01  0.97610288E+01  0.50000000E+00  0.00000000E+00
  0.00000000E+00  0.24878049E+01  0.10737132E+02  0.50000000E+00  0.00000000E+00
  0.00000000E+00  0.24878049E+01  0.11713235E+02  0.50000000E+00  0.00000000E+00
  0.00000000E+00  0.24878049E+01  0.12689337E+02  0.50000000E+00  0.00000000E+00
  0.00000000E+00  0.24878049E+01  0.13665440E+02  0.50000000E+00  0.00000000E+00
  0.00000000E+00  0.24878049E+01  0.14641543E+02  0.50000000E+00  0.00000000E+00
  0.00000000E+00  0.24878049E+01  0.15617646E+02  0.50000000E+00  0.00000000E+00
  0.00000000E+00  0.24878049E+01  0.16593749E+02  0.50000000E+00  0.00000000E+00
  0.00000000E+00  0.24878049E+01  0.17569852E+02  0.50000000E+00  0.00000000E+00
  0.00000000E+00  0.24878049E+01  0.18545955E+02  0.50000000E+00  0.00000000E+00
  0.00000000E+00  0.24878049E+01  0.19522058E+02  0.50000000E+00  0.00000000E+00
  0.00000000E+00  0.24878049E+01  0.20498160E+02  0.49815797E+00 -0.47870409E-10
  0.00000000E+00  0.49756098E+01  0.00000000E+00  0.50000000E+00  0.00000000E+00
  0.00000000E+00  0.49756098E+01  0.97610524E+00  0.50000000E+00  0.00000000E+00
  0.00000000E+00  0.49756098E+01  0.19522105E+01  0.50000000E+00  0.00000000E+00
  0.00000000E+00  0.49756098E+01  0.29283157E+01  0.50000000E+00  0.00000000E+00
  0.00000000E+00  0.49756098E+01  0.39044210E+01  0.50000000E+00  0.00000000E+00
  0.00000000E+00  0.49756098E+01  0.48805262E+01  0.50000000E+00  0.00000000E+00
  0.00000000E+00  0.49756098E+01  0.58566314E+01  0.50000000E+00  0.00000000E+00
  0.00000000E+00  0.49756098E+01  0.68327367E+01  0.50000000E+00  0.00000000E+00
  0.00000000E+00  0.49756098E+01  0.78088419E+01  0.50000000E+00  0.00000000E+00
  0.00000000E+00  0.49756098E+01  0.87849472E+01  0.50000000E+00  0.00000000E+00
  0.00000000E+00  0.49756098E+01  0.97610524E+01  0.50000000E+00  0.00000000E+00
  0.00000000E+00  0.49756098E+01  0.10737158E+02  0.50000000E+00  0.00000000E+00
  0.00000000E+00  0.49756098E+01  0.11713263E+02  0.50000000E+00  0.00000000E+00
  0.00000000E+00  0.49756098E+01  0.12689368E+02  0.50000000E+00  0.00000000E+00
  0.00000000E+00  0.49756098E+01  0.13665473E+02  0.50000000E+00  0.00000000E+00
  0.00000000E+00  0.49756098E+01  0.14641579E+02  0.50000000E+00  0.00000000E+00
  0.00000000E+00  0.49756098E+01  0.15617684E+02  0.50000000E+00  0.00000000E+00
  0.00000000E+00  0.49756098E+01  0.16593789E+02  0.50000000E+00  0.00000000E+00
  0.00000000E+00  0.49756098E+01  0.17569894E+02  0.50000000E+00  0.00000000E+00
  0.00000000E+00  0.49756098E+01  0.18546000E+02  0.50000000E+00  0.00000000E+00
  0.00000000E+00  0.49756098E+01  0.19522105E+02  0.50000000E+00  0.00000000E+00
  0.00000000E+00  0.49756098E+01  0.20498210E+02  0.49820773E+00 -0.53120904E-10
  0.00000000E+00  0.74634146E+01  0.00000000E+00  0.50000000E+00  0.00000000E+00
  0.00000000E+00  0.74634146E+01  0.97611153E+00  0.50000000E+00  0.00000000E+00
  0.00000000E+00  0.74634146E+01  0.19522231E+01  0.50000000E+00  0.00000000E+00
  0.00000000E+00  0.74634146E+01  0.29283346E+01  0.50000000E+00  0.00000000E+00
  0.00000000E+00  0.74634146E+01  0.39044461E+01  0.50000000E+00  0.00000000E+00
  0.00000000E+00  0.74634146E+01  0.48805577E+01  0.50000000E+00  0.00000000E+00
  0.00000000E+00  0.74634146E+01  0.58566692E+01  0.50000000E+00  0.00000000E+00
  0.00000000E+00  0.74634146E+01  0.68327807E+01  0.50000000E+00  0.00000000E+00
  0.00000000E+00  0.74634146E+01  0.78088923E+01  0.50000000E+00  0.00000000E+00
  0.00000000E+00  0.74634146E+01  0.87850038E+01  0.50000000E+00  0.00000000E+00
  0.00000000E+00  0.74634146E+01  0.97611153E+01  0.50000000E+00  0.00000000E+00
  0.00000000E+00  0.74634146E+01  0.10737227E+02  0.50000000E+00  0.00000000E+00
  0.00000000E+00  0.74634146E+01  0.11713338E+02  0.50000000E+00  0.00000000E+00
  0.00000000E+00  0.74634146E+01  0.12689450E+02  0.50000000E+00  0.00000000E+00
  0.00000000E+00  0.74634146E+01  0.13665561E+02  0.50000000E+00  0.00000000E+00
  0.00000000E+00  0.74634146E+01  0.14641673E+02  0.50000000E+00  0.00000000E+00
  0.00000000E+00  0.74634146E+01  0.15617785E+02  0.50000000E+00  0.00000000E+00
  0.00000000E+00  0.74634146E+01  0.16593896E+02  0.50000000E+00  0.00000000E+00
  0.00000000E+00  0.74634146E+01  0.17570008E+02  0.50000000E+00  0.00000000E+00
  0.00000000E+00  0.74634146E+01  0.18546119E+02  0.50000000E+00  0.00000000E+00
  0.00000000E+00  0.74634146E+01  0.19522231E+02  0.50000000E+00  0.00000000E+00
  0.00000000E+00  0.74634146E+01  0.20498342E+02  0.49834018E+00 -0.58344670E-10
  0.00000000E+00  0.99512195E+01  0.00000000E+00  0.50000000E+00  0.00000000E+00
  0.00000000E+00  0.99512195E+01  0.97611345E+00  0.50000000E+00  0.00000000E+00
  0.00000000E+00  0.99512195E+01  0.19522269E+01  0.50000000E+00  0.00000000E+00
  0.00000000E+00  0.99512195E+01  0.29283403E+01  0.50000000E+00  0.00000000E+00
  0.00000000E+00  0.99512195E+01  0.39044538E+01  0.50000000E+00  0.00000000E+00
  0.00000000E+00  0.99512195E+01  0.48805672E+01  0.50000000E+00  0.00000000E+00
  0.00000000E+00  0.99512195E+01  0.58566807E+01  0.50000000E+00  0.00000000E+00
  0.00000000E+00  0.99512195E+01  0.68327941E+01  0.50000000E+00  0.00000000E+00
  0.00000000E+00  0.99512195E+01  0.78089076E+01  0.50000000E+00  0.00000000E+00
  0.00000000E+00  0.99512195E+01  0.87850210E+01  0.50000000E+00  0.00000000E+00
  0.00000000E+00  0.99512195E+01  0.97611345E+01  0.50000000E+00  0.00000000E+00
  0.00000000E+00  0.99512195E+01  0.10737248E+02  0.50000000E+00  0.00000000E+00
  0.00000000E+00  0.99512195E+01  0.11713361E+02  0.50000000E+00  0.00000000E+00
  0.00000000E+00  0.99512195E+01  0.12689475E+02  0.50000000E+00  0.00000000E+00
  0.00000000E+00  0.99512195E+01  0.13665588E+02  0.50000000E+00  0.00000000E+00
  0.00000000E+00  0.99512195E+01  0.14641702E+02  0.50000000E+00  0.00000000E+00
  0.00000000E+00  0.99512195E+01  0.15617815E+02  0.50000000E+00  0.00000000E+00
  0.00000000E+00  0.99512195E+01  0.16593929E+02  0.50000000E+00  0.00000000E+00
  0.00000000E+00  0.99512195E+01  0.17570042E+02  0.50000000E+00  0.00000000E+00
  0.00000000E+00  0.99512195E+01  0.18546156E+02  0.50000000E+00  0.00000000E+00
  0.00000000E+00  0.99512195E+01  0.19522269E+02  0.50000000E+00  0.00000000E+00
  0.00000000E+00  0.99512195E+01  0.20498382E+02  0.49838054E+00 -0.65987713E-10
  0.00000000E+00  0.12439024E+02  0.00000000E+00  0.50000000E+00  0.00000000E+00
  0.00000000E+00  0.12439024E+02  0.97611538E+00  0.50000000E+00  0.00000000E+00
  0.00000000E+00  0.12439024E+02  0.19522308E+01  0.50000000E+00  0.00000000E+00
  0.00000000E+00  0.12439024E+02  0.29283461E+01  0.50000000E+00  0.00000000E+00
  0.00000000E+00  0.12439024E+02  0.39044615E+01  0.50000000E+00  0.00000000E+00
  0.00000000E+00  0.12439024E+02  0.48805769E+01  0.50000000E+00  0.00000000E+00
  0.00000000E+00  0.12439024E+02  0.58566923E+01  0.50000000E+00  0.00000000E+00
  0.00000000E+00  0.12439024E+02  0.68328077E+01  0.50000000E+00  0.00000000E+00
  0.00000000E+00  0.12439024E+02  0.78089231E+01  0.50000000E+00  0.00000000E+00
  0.00000000E+00  0.12439024E+02  0.87850384E+01  0.50000000E+00  0.00000000E+00
  0.00000000E+00  0.12439024E+02  0.97611538E+01  0.50000000E+00  0.00000000E+00
  0.00000000E+00  0.12439024E+02  0.10737269E+02  0.50000000E+00  0.00000000E+00
  0.00000000E+00  0.12439024E+02  0.11713385E+02  0.50000000E+00  0.00000000E+00
  0.00000000E+00  0.12439024E+02  0.12689500E+02  0.50000000E+00  0.00000000E+00
  0.00000000E+00  0.12439024E+02  0.13665615E+02  0.50000000E+00  0.00000000E+00
  0.00000000E+00  0.12439024E+02  0.14641731E+02  0.50000000E+00  0.00000000E+00
  0.00000000E+00  0.12439024E+02  0.15617846E+02  0.50000000E+00  0.00000000E+00
  0.00000000E+00  0.12439024E+02  0.16593961E+02  0.50000000E+00  0.00000000E+00
  0.00000000E+00  0.12439024E+02  0.17570077E+02  0.50000000E+00  0.00000000E+00
  0.00000000E+00  0.12439024E+02  0.18546192E+02  0.50000000E+00  0.00000000E+00
  0.00000000E+00  0.12439024E+02  0.19522308E+02  0.50000000E+00  0.00000000E+00
  0.00000000E+00  0.12439024E+02  0.20498423E+02  0.49842118E+00 -0.96743100E-10
  0.00000000E+00  0.14926829E+02  0.00000000E+00  0.50000000E+00  0.00000000E+00
  0.00000000E+00  0.14926829E+02  0.97610846E+00  0.50000000E+00  0.00000000E+00
  0.00000000E+00  0.14926829E+02  0.19522169E+01  0.50000000E+00  0.00000000E+00
  0.00000000E+00  0.14926829E+02  0.29283254E+01  0.50000000E+00  0.00000000E+00
  0.00000000E+00  0.14926829E+02  0.39044338E+01  0.50000000E+00  0.00000000E+00
  0.00000000E+00  0.14926829E+02  0.48805423E+01  0.50000000E+00  0.00000000E+00
  0.00000000E+00  0.14926829E+02  0.58566508E+01  0.50000000E+00  0.00000000E+00
  0.00000000E+00  0.14926829E+02  0.68327592E+01  0.50000000E+00  0.00000000E+00
  0.00000000E+00  0.14926829E+02  0.78088677E+01  0.50000000E+00  0.00000000E+00
  0.00000000E+00  0.14926829E+02  0.87849761E+01  0.50000000E+00  0.00000000E+00
  0.00000000E+00  0.14926829E+02  0.97610846E+01  0.50000000E+00  0.00000000E+00
  0.00000000E+00  0.14926829E+02  0.10737193E+02  0.50000000E+00  0.00000000E+00
  0.00000000E+00  0.14926829E+02  0.11713302E+02  0.50000000E+00  0.00000000E+00
  0.00000000E+00  0.14926829E+02  0.12689410E+02  0.50000000E+00  0.00000000E+00
  0.00000000E+00  0.14926829E+02  0.13665518E+02  0.50000000E+00  0.00000000E+00
  0.00000000E+00  0.14926829E+02  0.14641627E+02  0.50000000E+00  0.00000000E+00
  0.00000000E+00  0.14926829E+02  0.15617735E+02  0.50000000E+00  0.00000000E+00
  0.00000000E+00  0.14926829E+02  0.16593844E+02  0.50000000E+00  0.00000000E+00
  0.00000000E+00  0.14926829E+02  0.17569952E+02  0.50000000E+00  0.00000000E+00
  0.00000000E+00  0.14926829E+02  0.18546061E+02  0.50000000E+00  0.00000000E+00
  0.00000000E+00  0.14926829E+02  0.19522169E+02  0.50000000E+00  0.00000000E+00
  0.00000000E+00  0.14926829E+02  0.20498278E+02  0.49827550E+00 -0.20811780E-09
  0.00000000E+00  0.17414634E+02  0.00000000E+00  0.50000000E+00  0.00000000E+00
  0.00000000E+00  0.17414634E+02  0.97610056E+00  0.50000000E+00  0.00000000E+00
  0.00000000E+00  0.17414634E+02  0.19522011E+01  0.50000000E+00  0.00000000E+00
  0.00000000E+00  0.17414634E+02  0.29283017E+01  0.50000000E+00  0.00000000E+00
  0.00000000E+00  0.17414634E+02  0.39044023E+01  0.50000000E+00  0.00000000E+00
  0.00000000E+00  0.17414634E+02  0.48805028E+01  0.50000000E+00  0.00000000E+00
  0.00000000E+00  0.17414634E+02  0.58566034E+01  0.50000000E+00  0.00000000E+00
  0.00000000E+00  0.17414634E+02  0.68327040E+01  0.50000000E+00  0.00000000E+00
  0.00000000E+00  0.17414634E+02  0.78088045E+01  0.50000000E+00  0.00000000E+00
  0.00000000E+00  0.17414634E+02  0.87849051E+01  0.50000000E+00  0.00000000E+00
  0.00000000E+00  0.17414634E+02  0.97610056E+01  0.50000000E+00  0.00000000E+00
  0.00000000E+00  0.17414634E+02  0.10737106E+02  0.50000000E+00  0.00000000E+00
  0.00000000E+00  0.17414634E+02  0.11713207E+02  0.50000000E+00  0.00000000E+00
  0.00000000E+00  0.17414634E+02  0.12689307E+02  0.50000000E+00  0.00000000E+00
  0.00000000E+00  0.17414634E+02  0.13665408E+02  0.50000000E+00  0.00000000E+00
  0.00000000E+00  0.17414634E+02  0.14641508E+02  0.50000000E+00  0.00000000E+00
  0.00000000E+00  0.17414634E+02  0.15617609E+02  0.50000000E+00  0.00000000E+00
  0.00000000E+00  0.17414634E+02  0.16593710E+02  0.50000000E+00  0.00000000E+00
  0.00000000E+00  0.17414634E+02  0.17569810E+02  0.50000000E+00  0.00000000E+00
  0.00000000E+00  0.17414634E+02  0.18545911E+02  0.50000000E+00  0.00000000E+00
  0.00000000E+00  0.17414634E+02  0.19522011E+02  0.50000000E+00  0.00000000E+00
  0.00000000E+00  0.17414634E+02  0.20498112E+02  0.49810967E+00 -0.25718253E-09
  0.00000000E+00  0.19902439E+02  0.00000000E+00  0.50000000E+00  0.00000000E+00
  0.00000000E+00  0.19902439E+02  0.97609805E+00  0.50000000E+00  0.00000000E+00
  0.00000000E+00  0.19902439E+02  0.19521961E+01  0.50000000E+00  0.00000000E+00
  0.00000000E+00  0.19902439E+02  0.29282941E+01  0.50000000E+00  0.00000000E+00
  0.00000000E+00  0.19902439E+02  0.39043922E+01  0.50000000E+00  0.00000000E+00
  0.00000000E+00  0.19902439E+02  0.48804902E+01  0.50000000E+00  0.00000000E+00
  0.00000000E+00  0.19902439E+02  0.58565883E+01  0.50000000E+00  0.00000000E+00
  0.00000000E+00  0.19902439E+02  0.68326863E+01  0.50000000E+00  0.00000000E+00
  0.00000000E+00  0.19902439E+02  0.78087844E+01  0.50000000E+00  0.00000000E+00
  0.00000000E+00  0.19902439E+02  0.87848824E+01  0.50000000E+00  0.00000000E+00
  0.00000000E+00  0.19902439E+02  0.97609805E+01  0.50000000E+00  0.00000000E+00
  0.00000000E+00  0.19902439E+02  0.10737079E+02  0.50000000E+00  0.00000000E+00
  0.00000000E+00  0.19902439E+02  0.11713177E+02  0.50000000E+00  0.00000000E+00
  0.00000000E+00  0.19902439E+02  0.12689275E+02  0.50000000E+00  0.00000000E+00
  0.00000000E+00  0.19902439E+02  0.13665373E+02  0.50000000E+00  0.00000000E+00
  0.00000000E+00  0.19902439E+02  0.14641471E+02  0.50000000E+00  0.00000000E+00
  0.00000000E+00  0.19902439E+02  0.15617569E+02  0.50000000E+00  0.00000000E+00
  0.00000000E+00  0.19902439E+02  0.16593667E+02  0.50000000E+00  0.00000000E+00
  0.00000000E+00  0.19902439E+02  0.17569765E+02  0.50000000E+00  0.00000000E+00
  0.00000000E+00  0.19902439E+02  0.18545863E+02  0.50000000E+00  0.00000000E+00
  0.00000000E+00  0.19902439E+02  0.19521961E+02  0.50000000E+00  0.00000000E+00
  0.00000000E+00  0.19902439E+02  0.20498059E+02  0.49805676E+00 -0.28367391E-09
  0.00000000E+00  0.22390244E+02  0.00000000E+00  0.50000000E+00  0.00000000E+00
  0.00000000E+00  0.22390244E+02  0.97610634E+00  0.50000000E+00  0.00000000E+00
  0.00000000E+00  0.22390244E+02  0.19522127E+01  0.50000000E+00  0.00000000E+00
  0.00000000E+00  0.22390244E+02  0.29283190E+01  0.50000000E+00  0.00000000E+00
  0.00000000E+00  0.22390244E+02  0.39044254E+01  0.50000000E+00  0.00000000E+00
  0.00000000E+00  0.22390244E+02  0.48805317E+01  0.50000000E+00  0.00000000E+00
  0.00000000E+00  0.22390244E+02  0.58566380E+01  0.50000000E+00  0.00000000E+00
  0.00000000E+00  0.22390244E+02  0.68327444E+01  0.50000000E+00  0.00000000E+00
  0.00000000E+00  0.22390244E+02  0.78088507E+01  0.50000000E+00  0.00000000E+00
  0.00000000E+00  0.22390244E+02  0.87849570E+01  0.50000000E+00  0.00000000E+00
  0.00000000E+00  0.22390244E+02  0.97610634E+01  0.50000000E+00  0.00000000E+00
  0.00000000E+00  0.22390244E+02  0.10737170E+02  0.50000000E+00  0.00000000E+00
  0.00000000E+00  0.22390244E+02  0.11713276E+02  0.50000000E+00  0.00000000E+00
  0.00000000E+00  0.22390244E+02  0.12689382E+02  0.50000000E+00  0.00000000E+00
  0.00000000E+00  0.22390244E+02  0.13665489E+02  0.50000000E+00  0.00000000E+00
  0.00000000E+00  0.22390244E+02  0.14641595E+02  0.50000000E+00  0.00000000E+00
  0.00000000E+00  0.22390244E+02  0.15617701E+02  0.50000000E+00  0.00000000E+00
  0.00000000E+00  0.22390244E+02  0.16593808E+02  0.50000000E+00  0.00000000E+00
  0.00000000E+00  0.22390244E+02  0.17569914E+02  0.50000000E+00  0.00000000E+00
  0.00000000E+00  0.22390244E+02  0.18546020E+02  0.50000000E+00  0.00000000E+00
  0.00000000E+00  0.22390244E+02  0.19522127E+02  0.50000000E+00  0.00000000E+00
  0.00000000E+00  0.22390244E+02  0.20498233E+02  0.49823117E+00 -0.31628555E-09
  0.00000000E+00  0.24878049E+02  0.00000000E+00  0.50000000E+00  0.00000000E+00
  0.00000000E+00  0.24878049E+02  0.97610096E+00  0.50000000E+00  0.00000000E+00
  0.00000000E+00  0.24878049E+02  0.19522019E+01  0.50000000E+00  0.00000000E+00
  0.00000000E+00  0.24878049E+02  0.29283029E+01  0.50000000E+00  0.00000000E+00
  0.00000000E+00  0.24878049E+02  0.39044038E+01  0.50000000E+00  0.00000000E+00
  0.00000000E+00  0.24878049E+02  0.48805048E+01  0.50000000E+00  0.00000000E+00
  0.00000000E+00  0.24878049E+02  0.58566058E+01  0.50000000E+00  0.00000000E+00
  0.00000000E+00  0.24878049E+02  0.68327067E+01  0.50000000E+00  0.00000000E+00
  0.00000000E+00  0.24878049E+02  0.78088077E+01  0.50000000E+00  0.00000000E+00
  0.00000000E+00  0.24878049E+02  0.87849086E+01  0.50000000E+00  0.00000000E+00
  0.00000000E+00  0.24878049E+02  0.97610096E+01  0.50000000E+00  0.00000000E+00
  0.00000000E+00  0.24878049E+02  0.10737111E+02  0.50000000E+00  0.00000000E+00
  0.00000000E+00  0.24878049E+02  0.11713212E+02  0.50000000E+00  0.00000000E+00
  0.00000000E+00  0.24878049E+02  0.12689312E+02  0.50000000E+00  0.00000000E+00
  0.00000000E+00  0.24878049E+02  0.13665413E+02  0.50000000E+00  0.00000000E+00
  0.00000000E+00  0.24878049E+02  0.14641514E+02  0.50000000E+00  0.00000000E+00
  0.00000000E+00  0.24878049E+02  0.15617615E+02  0.50000000E+00  0.00000000E+00
  0.00000000E+00  0.24878049E+02  0.16593716E+02  0.50000000E+00  0.00000000E+00
  0.00000000E+00  0.24878049E+02  0.17569817E+02  0.50000000E+00  0.00000000E+00
  0.00000000E+00  0.24878049E+02  0.18545918E+02  0.50000000E+00  0.00000000E+00
  0.00000000E+00  0.24878049E+02  0.19522019E+02  0.50000000E+00  0.00000000E+00
  0.00000000E+00  0.24878049E+02  0.20498120E+02  0.49811838E+00 -0.26522401E-09
  0.00000000E+00  0.27365854E+02  0.00000000E+00  0.50000000E+00  0.00000000E+00
  0.00000000E+00  0.27365854E+02  0.97610663E+00  0.50000000E+00  0.00000000E+00
  0.00000000E+00  0.27365854E+02  0.19522133E+01  0.50000000E+00  0.00000000E+00
  0.00000000E+00  0.27365854E+02  0.29283199E+01  0.50000000E+00  0.00000000E+00
  0.00000000E+00  0.27365854E+02  0.39044265E+01  0.50000000E+00  0.00000000E+00
  0.00000000E+00  0.27365854E+02  0.48805332E+01  0.50000000E+00  0.00000000E+00
  0.00000000E+00  0.27365854E+02  0.58566398E+01  0.50000000E+00  0.00000000E+00
  0.00000000E+00  0.27365854E+02  0.68327464E+01  0.50000000E+00  0.00000000E+00
  0.00000000E+00  0.27365854E+02  0.78088531E+01  0.50000000E+00  0.00000000E+00
  0.00000000E+00  0.27365854E+02  0.87849597E+01  0.50000000E+00  0.00000000E+00
  0.00000000E+00  0.27365854E+02  0.97610663E+01  0.50000000E+00  0.00000000E+00
  0.00000000E+00  0.27365854E+02  0.10737173E+02  0.50000000E+00  0.00000000E+00
  0.00000000E+00  0.27365854E+02  0.11713280E+02  0.50000000E+00  0.00000000E+00
  0.00000000E+00  0.27365854E+02  0.12689386E+02  0.50000000E+00  0.00000000E+00
  0.00000000E+00  0.27365854E+02  0.13665493E+02  0.50000000E+00  0.00000000E+00
  0.00000000E+00  0.27365854E+02  0.14641599E+02  0.50000000E+00  0.00000000E+00
  0.00000000E+00  0.27365854E+02  0.15617706E+02  0.50000000E+00  0.00000000E+00
  0.00000000E+00  0.27365854E+02  0.16593813E+02  0.50000000E+00  0.00000000E+00
  0.00000000E+00  0.27365854E+02  0.17569919E+02  0.50000000E+00  0.00000000E+00
  0.00000000E+00  0.27365854E+02  0.18546026E+02  0.50000000E+00  0.00000000E+00
  0.00000000E+00  0.27365854E+02  0.19522133E+02  0.50000000E+00  0.00000000E+00
  0.00000000E+00  0.27365854E+02  0.20498239E+02  0.49823781E+00 -0.16213871E-09
  0.00000000E+00  0.29853659E+02  0.00000000E+00  0.50000000E+00  0.00000000E+00
  0.00000000E+00  0.29853659E+02  0.97610707E+00  0.50000000E+00  0.00000000E+00
  0.00000000E+00  0.29853659E+02  0.19522141E+01  0.50000000E+00  0.00000000E+00
  0.00000000E+00  0.29853659E+02  0.29283212E+01  0.50000000E+00  0.00000000E+00
  0.00000000E+00  0.29853659E+02  0.39044283E+01  0.50000000E+00  0.00000000E+00
  0.00000000E+00  0.29853659E+02  0.48805354E+01  0.50000000E+00  0.00000000E+00
  0.00000000E+00  0.29853659E+02  0.58566424E+01  0.50000000E+00  0.00000000E+00
  0.00000000E+00  0.29853659E+02  0.68327495E+01  0.50000000E+00  0.00000000E+00
  0.00000000E+00  0.29853659E+02  0.78088566E+01  0.50000000E+00  0.00000000E+00
  0.00000000E+00  0.29853659E+02  0.87849636E+01  0.50000000E+00  0.00000000E+00
  0.00000000E+00  0.29853659E+02  0.97610707E+01  0.50000000E+00  0.00000000E+00
  0.00000000E+00  0.29853659E+02  0.10737178E+02  0.50000000E+00  0.00000000E+00
  0.00000000E+00  0.29853659E+02  0.11713285E+02  0.50000000E+00  0.00000000E+00
  0.00000000E+00  0.29853659E+02  0.12689392E+02  0.50000000E+00  0.00000000E+00
  0.00000000E+00  0.29853659E+02  0.13665499E+02  0.50000000E+00  0.00000000E+00
  0.00000000E+00  0.29853659E+02  0.14641606E+02  0.50000000E+00  0.00000000E+00
  0.00000000E+00  0.29853659E+02  0.15617713E+02  0.50000000E+00  0.00000000E+00
  0.00000000E+00  0.29853659E+02  0.16593820E+02  0.50000000E+00  0.00000000E+00
  0.00000000E+00  0.29853659E+02  0.17569927E+02  0.50000000E+00  0.00000000E+00
  0.00000000E+00  0.29853659E+02  0.18546034E+02  0.50000000E+00  0.00000000E+00
  0.00000000E+00  0.29853659E+02  0.19522141E+02  0.50000000E+00  0.00000000E+00
  0.00000000E+00  0.29853659E+02  0.20498248E+02  0.49824715E+00 -0.13501664E-09
  0.00000000E+00  0.32341463E+02  0.00000000E+00  0.50000000E+00  0.00000000E+00
  0.00000000E+00  0.32341463E+02  0.97610646E+00  0.50000000E+00  0.00000000E+00
  0.00000000E+00  0.32341463E+02  0.19522129E+01  0.50000000E+00  0.00000000E+00
  0.00000000E+00  0.32341463E+02  0.29283194E+01  0.50000000E+00  0.00000000E+00
  0.00000000E+00  0.32341463E+02  0.39044258E+01  0.50000000E+00  0.00000000E+00
  0.00000000E+00  0.32341463E+02  0.48805323E+01  0.50000000E+00  0.00000000E+00
  0.00000000E+00  0.32341463E+02  0.58566388E+01  0.50000000E+00  0.00000000E+00
  0.00000000E+00  0.32341463E+02  0.68327452E+01  0.50000000E+00  0.00000000E+00
  0.00000000E+00  0.32341463E+02  0.78088517E+01  0.50000000E+00  0.00000000E+00
  0.00000000E+00  0.32341463E+02  0.87849581E+01  0.50000000E+00  0.00000000E+00
  0.00000000E+00  0.32341463E+02  0.97610646E+01  0.50000000E+00  0.00000000E+00
  0.00000000E+00  0.32341463E+02  0.10737171E+02  0.50000000E+00  0.00000000E+00
  0.00000000E+00  0.32341463E+02  0.11713278E+02  0.50000000E+00  0.00000000E+00
  0.00000000E+00  0.32341463E+02  0.12689384E+02  0.50000000E+00  0.00000000E+00
  0.00000000E+00  0.32341463E+02  0.13665490E+02  0.50000000E+00  0.00000000E+00
  0.00000000E+00  0.32341463E+02  0.14641597E+02  0.50000000E+00  0.00000000E+00
  0.00000000E+00  0.32341463E+02  0.15617703E+02  0.50000000E+00  0.00000000E+00
  0.00000000E+00  0.32341463E+02  0.16593810E+02  0.50000000E+00  0.00000000E+00
  0.00000000E+00  0.32341463E+02  0.17569916E+02  0.50000000E+00  0.00000000E+00
  0.00000000E+00  0.32341463E+02  0.18546023E+02  0.50000000E+00  0.00000000E+00
  0.00000000E+00  0.32341463E+02  0.19522129E+02  0.50000000E+00  0.00000000E+00
  0.00000000E+00  0.32341463E+02  0.20498236E+02  0.49823429E+00 -0.14577778E-09
  0.00000000E+00  0.34829268E+02  0.00000000E+00  0.50000000E+00  0.00000000E+00
  0.00000000E+00  0.34829268E+02  0.97611991E+00  0.50000000E+00  0.00000000E+00
  0.00000000E+00  0.34829268E+02  0.19522398E+01  0.50000000E+00  0.00000000E+00
  0.00000000E+00  0.34829268E+02  0.29283597E+01  0.50000000E+00  0.00000000E+00
  0.00000000E+00  0.34829268E+02  0.39044796E+01  0.50000000E+00  0.00000000E+00
  0.00000000E+00  0.34829268E+02  0.48805996E+01  0.50000000E+00  0.00000000E+00
  0.00000000E+00  0.34829268E+02  0.58567195E+01  0.50000000E+00  0.00000000E+00
  0.00000000E+00  0.34829268E+02  0.68328394E+01  0.50000000E+00  0.00000000E+00
  0.00000000E+00  0.34829268E+02  0.78089593E+01  0.50000000E+00  0.00000000E+00
  0.00000000E+00  0.34829268E+02  0.87850792E+01  0.50000000E+00  0.00000000E+00
  0.00000000E+00  0.34829268E+02  0.97611991E+01  0.50000000E+00  0.00000000E+00
  0.00000000E+00  0.34829268E+02  0.10737319E+02  0.50000000E+00  0.00000000E+00
  0.00000000E+00  0.34829268E+02  0.11713439E+02  0.50000000E+00  0.00000000E+00
  0.00000000E+00  0.34829268E+02  0.12689559E+02  0.50000000E+00  0.00000000E+00
  0.00000000E+00  0.34829268E+02  0.13665679E+02  0.50000000E+00  0.00000000E+00
  0.00000000E+00  0.34829268E+02  0.14641799E+02  0.50000000E+00  0.00000000E+00
  0.00000000E+00  0.34829268E+02  0.15617919E+02  0.50000000E+00  0.00000000E+00
  0.00000000E+00  0.34829268E+02  0.16594039E+02  0.50000000E+00  0.00000000E+00
  0.00000000E+00  0.34829268E+02  0.17570158E+02  0.50000000E+00  0.00000000E+00
  0.00000000E+00  0.34829268E+02  0.18546278E+02  0.50000000E+00  0.00000000E+00
  0.00000000E+00  0.34829268E+02  0.19522398E+02  0.50000000E+00  0.00000000E+00
  0.00000000E+00  0.34829268E+02  0.20498518E+02  0.49851702E+00 -0.14459128E-09
  0.00000000E+00  0.37317073E+02  0.00000000E+00  0.50000000E+00  0.00000000E+00
  0.00000000E+00  0.37317073E+02  0.97612813E+00  0.50000000E+00  0.00000000E+00
  0.00000000E+00  0.37317073E+02  0.19522563E+01  0.50000000E+00  0.00000000E+00
  0.00000000E+00  0.37317073E+02  0.29283844E+01  0.50000000E+00  0.00000000E+00
  0.00000000E+00  0.37317073E+02  0.39045125E+01  0.50000000E+00  0.00000000E+00
  0.00000000E+00  0.37317073E+02  0.48806406E+01  0.50000000E+00  0.00000000E+00
  0.00000000E+00  0.37317073E+02  0.58567688E+01  0.50000000E+00  0.00000000E+00
  0.00000000E+00  0.37317073E+02  0.68328969E+01  0.50000000E+00  0.00000000E+00
  0.00000000E+00  0.37317073E+02  0.78090250E+01  0.50000000E+00  0.00000000E+00
  0.00000000E+00  0.37317073E+02  0.87851532E+01  0.50000000E+00  0.00000000E+00
  0.00000000E+00  0.37317073E+02  0.97612813E+01  0.50000000E+00  0.00000000E+00
  0.00000000E+00  0.37317073E+02  0.10737409E+02  0.50000000E+00  0.00000000E+00
  0.00000000E+00  0.37317073E+02  0.11713538E+02  0.50000000E+00  0.00000000E+00
  0.00000000E+00  0.37317073E+02  0.12689666E+02  0.50000000E+00  0.00000000E+00
  0.00000000E+00  0.37317073E+02  0.13665794E+02  0.50000000E+00  0.00000000E+00
  0.00000000E+00  0.37317073E+02  0.14641922E+02  0.50000000E+00  0.00000000E+00
  0.00000000E+00  0.37317073E+02  0.15618050E+02  0.50000000E+00  0.00000000E+00
  0.00000000E+00  0.37317073E+02  0.16594178E+02  0.50000000E+00  0.00000000E+00
  0.00000000E+00  0.37317073E+02  0.17570306E+02  0.50000000E+00  0.00000000E+00
  0.00000000E+00  0.37317073E+02  0.18546434E+02  0.50000000E+00  0.00000000E+00
  0.00000000E+00  0.37317073E+02  0.19522563E+02  0.50000000E+00  0.00000000E+00
  0.00000000E+00  0.37317073E+02  0.20498691E+02  0.49868968E+00 -0.14957564E-09
  0.00000000E+00  0.39804878E+02  0.00000000E+00  0.50000000E+00  0.00000000E+00
  0.00000000E+00  0.39804878E+02  0.97612288E+00  0.50000000E+00  0.00000000E+00
  0.00000000E+00  0.39804878E+02  0.19522458E+01  0.50000000E+00  0.00000000E+00
  0.00000000E+00  0.39804878E+02  0.29283686E+01  0.50000000E+00  0.00000000E+00
  0.00000000E+00  0.39804878E+02  0.39044915E+01  0.50000000E+00  0.00000000E+00
  0.00000000E+00  0.39804878E+02  0.48806144E+01  0.50000000E+00  0.00000000E+00
  0.00000000E+00  0.39804878E+02  0.58567373E+01  0.50000000E+00  0.00000000E+00
  0.00000000E+00  0.39804878E+02  0.68328602E+01  0.50000000E+00  0.00000000E+00
  0.00000000E+00  0.39804878E+02  0.78089831E+01  0.50000000E+00  0.00000000E+00
  0.00000000E+00  0.39804878E+02  0.87851059E+01  0.50000000E+00  0.00000000E+00
  0.00000000E+00  0.39804878E+02  0.97612288E+01  0.50000000E+00  0.00000000E+00
  0.00000000E+00  0.39804878E+02  0.10737352E+02  0.50000000E+00  0.00000000E+00
  0.00000000E+00  0.39804878E+02  0.11713475E+02  0.50000000E+00  0.00000000E+00
  0.00000000E+00  0.39804878E+02  0.12689597E+02  0.50000000E+00  0.00000000E+00
  0.00000000E+00  0.39804878E+02  0.13665720E+02  0.50000000E+00  0.00000000E+00
  0.00000000E+00  0.39804878E+02  0.14641843E+02  0.50000000E+00  0.00000000E+00