title="2d K section "
variables="x","z","Kx","logKx","Kz","logKz","porosity"
zone i=    22, j=    42,T="Initial K at t=0"
   0.0000000E+00   0.0000000E+00   0.3628159E-04  -0.4440314E+01   0.3628159E-04  -0.4440314E+01   0.3000000E+00
   0.0000000E+00   0.9761905E+00   0.2968407E-04  -0.4527477E+01   0.2968407E-04  -0.4527477E+01   0.3000000E+00
   0.0000000E+00   0.1952381E+01   0.3026556E-04  -0.4519051E+01   0.3026556E-04  -0.4519051E+01   0.3000000E+00
   0.0000000E+00   0.2928571E+01   0.3610786E-04  -0.4442398E+01   0.3610786E-04  -0.4442398E+01   0.3000000E+00
   0.0000000E+00   0.3904762E+01   0.2812364E-04  -0.4550928E+01   0.2812364E-04  -0.4550928E+01   0.3000000E+00
   0.0000000E+00   0.4880952E+01   0.1670671E-04  -0.4777109E+01   0.1670671E-04  -0.4777109E+01   0.3000000E+00
   0.0000000E+00   0.5857143E+01   0.1462907E-04  -0.4834783E+01   0.1462907E-04  -0.4834783E+01   0.3000000E+00
   0.0000000E+00   0.6833333E+01   0.1691855E-04  -0.4771637E+01   0.1691855E-04  -0.4771637E+01   0.3000000E+00
   0.0000000E+00   0.7809524E+01   0.4067487E-04  -0.4390674E+01   0.4067487E-04  -0.4390674E+01   0.3000000E+00
   0.0000000E+00   0.8785714E+01   0.3397451E-04  -0.4468847E+01   0.3397451E-04  -0.4468847E+01   0.3000000E+00
   0.0000000E+00   0.9761905E+01   0.3764539E-04  -0.4424288E+01   0.3764539E-04  -0.4424288E+01   0.3000000E+00
   0.0000000E+00   0.1073810E+02   0.1836168E-07  -0.7736088E+01   0.1836168E-07  -0.7736088E+01   0.3000000E+00
   0.0000000E+00   0.1171429E+02   0.2363115E-07  -0.7626515E+01   0.2363115E-07  -0.7626515E+01   0.3000000E+00
   0.0000000E+00   0.1269048E+02   0.8748487E-07  -0.7058067E+01   0.8748487E-07  -0.7058067E+01   0.3000000E+00
   0.0000000E+00   0.1366667E+02   0.1173506E-06  -0.6930515E+01   0.1173506E-06  -0.6930515E+01   0.3000000E+00
   0.0000000E+00   0.1464286E+02   0.4415763E-07  -0.7354994E+01   0.4415763E-07  -0.7354994E+01   0.3000000E+00
   0.0000000E+00   0.1561905E+02   0.9035945E-05  -0.5044026E+01   0.9035945E-05  -0.5044026E+01   0.3000000E+00
   0.0000000E+00   0.1659524E+02   0.8606438E-05  -0.5065177E+01   0.8606438E-05  -0.5065177E+01   0.3000000E+00
   0.0000000E+00   0.1757143E+02   0.1031615E-04  -0.4986482E+01   0.1031615E-04  -0.4986482E+01   0.3000000E+00
   0.0000000E+00   0.1854762E+02   0.1092453E-04  -0.4961597E+01   0.1092453E-04  -0.4961597E+01   0.3000000E+00
   0.0000000E+00   0.1952381E+02   0.3349213E-04  -0.4475057E+01   0.3349213E-04  -0.4475057E+01   0.3000000E+00
   0.0000000E+00   0.2050000E+02   0.3349213E-04  -0.4475057E+01   0.3349213E-04  -0.4475057E+01   0.3000000E+00
   0.2487805E+01   0.0000000E+00   0.7127250E-04  -0.4147078E+01   0.7127250E-04  -0.4147078E+01   0.3000000E+00
   0.2487805E+01   0.9761905E+00   0.4088693E-04  -0.4388415E+01   0.4088693E-04  -0.4388415E+01   0.3000000E+00
   0.2487805E+01   0.1952381E+01   0.6064945E-04  -0.4217173E+01   0.6064945E-04  -0.4217173E+01   0.3000000E+00
   0.2487805E+01   0.2928571E+01   0.6729666E-04  -0.4172007E+01   0.6729666E-04  -0.4172007E+01   0.3000000E+00
   0.2487805E+01   0.3904762E+01   0.6304890E-04  -0.4200323E+01   0.6304890E-04  -0.4200323E+01   0.3000000E+00
   0.2487805E+01   0.4880952E+01   0.6729666E-04  -0.4172007E+01   0.6729666E-04  -0.4172007E+01   0.3000000E+00
   0.2487805E+01   0.5857143E+01   0.3114989E-04  -0.4506544E+01   0.3114989E-04  -0.4506544E+01   0.3000000E+00
   0.2487805E+01   0.6833333E+01   0.2895696E-04  -0.4538247E+01   0.2895696E-04  -0.4538247E+01   0.3000000E+00
   0.2487805E+01   0.7809524E+01   0.4342393E-04  -0.4362271E+01   0.4342393E-04  -0.4362271E+01   0.3000000E+00
   0.2487805E+01   0.8785714E+01   0.6064338E-04  -0.4217217E+01   0.6064338E-04  -0.4217217E+01   0.3000000E+00
   0.2487805E+01   0.9761905E+01   0.5202428E-04  -0.4283794E+01   0.5202428E-04  -0.4283794E+01   0.3000000E+00
   0.2487805E+01   0.1073810E+02   0.1443948E-07  -0.7840449E+01   0.1443948E-07  -0.7840449E+01   0.3000000E+00
   0.2487805E+01   0.1171429E+02   0.1229117E-06  -0.6910407E+01   0.1229117E-06  -0.6910407E+01   0.3000000E+00
   0.2487805E+01   0.1269048E+02   0.4463266E-07  -0.7350347E+01   0.4463266E-07  -0.7350347E+01   0.3000000E+00
   0.2487805E+01   0.1366667E+02   0.1618170E-06  -0.6790976E+01   0.1618170E-06  -0.6790976E+01   0.3000000E+00
   0.2487805E+01   0.1464286E+02   0.9350320E-05  -0.5029174E+01   0.9350320E-05  -0.5029174E+01   0.3000000E+00
   0.2487805E+01   0.1561905E+02   0.7283493E-05  -0.5137660E+01   0.7283493E-05  -0.5137660E+01   0.3000000E+00
   0.2487805E+01   0.1659524E+02   0.5342056E-05  -0.5272292E+01   0.5342056E-05  -0.5272292E+01   0.3000000E+00
   0.2487805E+01   0.1757143E+02   0.7164301E-05  -0.5144826E+01   0.7164301E-05  -0.5144826E+01   0.3000000E+00
   0.2487805E+01   0.1854762E+02   0.1813258E-04  -0.4741540E+01   0.1813258E-04  -0.4741540E+01   0.3000000E+00
   0.2487805E+01   0.1952381E+02   0.5643054E-04  -0.4248486E+01   0.5643054E-04  -0.4248486E+01   0.3000000E+00
   0.2487805E+01   0.2050000E+02   0.5643054E-04  -0.4248486E+01   0.5643054E-04  -0.4248486E+01   0.3000000E+00
   0.4975610E+01   0.0000000E+00   0.1096957E-03  -0.3959810E+01   0.1096957E-03  -0.3959810E+01   0.3000000E+00
   0.4975610E+01   0.9761905E+00   0.1886316E-04  -0.4724386E+01   0.1886316E-04  -0.4724386E+01   0.3000000E+00
   0.4975610E+01   0.1952381E+01   0.3787194E-04  -0.4421682E+01   0.3787194E-04  -0.4421682E+01   0.3000000E+00
   0.4975610E+01   0.2928571E+01   0.7975908E-04  -0.4098220E+01   0.7975908E-04  -0.4098220E+01   0.3000000E+00
   0.4975610E+01   0.3904762E+01   0.4138467E-04  -0.4383160E+01   0.4138467E-04  -0.4383160E+01   0.3000000E+00
   0.4975610E+01   0.4880952E+01   0.4000124E-04  -0.4397927E+01   0.4000124E-04  -0.4397927E+01   0.3000000E+00
   0.4975610E+01   0.5857143E+01   0.3060032E-04  -0.4514274E+01   0.3060032E-04  -0.4514274E+01   0.3000000E+00
   0.4975610E+01   0.6833333E+01   0.5576300E-04  -0.4253654E+01   0.5576300E-04  -0.4253654E+01   0.3000000E+00
   0.4975610E+01   0.7809524E+01   0.6171398E-04  -0.4209616E+01   0.6171398E-04  -0.4209616E+01   0.3000000E+00
   0.4975610E+01   0.8785714E+01   0.6380366E-04  -0.4195154E+01   0.6380366E-04  -0.4195154E+01   0.3000000E+00
   0.4975610E+01   0.9761905E+01   0.5714035E-04  -0.4243057E+01   0.5714035E-04  -0.4243057E+01   0.3000000E+00
   0.4975610E+01   0.1073810E+02   0.8541749E-08  -0.8068453E+01   0.8541749E-08  -0.8068453E+01   0.3000000E+00
   0.4975610E+01   0.1171429E+02   0.7337372E-07  -0.7134459E+01   0.7337372E-07  -0.7134459E+01   0.3000000E+00
   0.4975610E+01   0.1269048E+02   0.5715494E-07  -0.7242946E+01   0.5715494E-07  -0.7242946E+01   0.3000000E+00
   0.4975610E+01   0.1366667E+02   0.1241594E-06  -0.6906021E+01   0.1241594E-06  -0.6906021E+01   0.3000000E+00
   0.4975610E+01   0.1464286E+02   0.8601276E-05  -0.5065437E+01   0.8601276E-05  -0.5065437E+01   0.3000000E+00
   0.4975610E+01   0.1561905E+02   0.5547296E-05  -0.5255919E+01   0.5547296E-05  -0.5255919E+01   0.3000000E+00
   0.4975610E+01   0.1659524E+02   0.3978921E-05  -0.5400235E+01   0.3978921E-05  -0.5400235E+01   0.3000000E+00
   0.4975610E+01   0.1757143E+02   0.6470223E-05  -0.5189081E+01   0.6470223E-05  -0.5189081E+01   0.3000000E+00
   0.4975610E+01   0.1854762E+02   0.1005742E-04  -0.4997513E+01   0.1005742E-04  -0.4997513E+01   0.3000000E+00
   0.4975610E+01   0.1952381E+02   0.2618562E-04  -0.4581937E+01   0.2618562E-04  -0.4581937E+01   0.3000000E+00
   0.4975610E+01   0.2050000E+02   0.2618562E-04  -0.4581937E+01   0.2618562E-04  -0.4581937E+01   0.3000000E+00
   0.7463415E+01   0.0000000E+00   0.5830632E-04  -0.4234284E+01   0.5830632E-04  -0.4234284E+01   0.3000000E+00
   0.7463415E+01   0.9761905E+00   0.1989186E-04  -0.4701325E+01   0.1989186E-04  -0.4701325E+01   0.3000000E+00
   0.7463415E+01   0.1952381E+01   0.3248929E-04  -0.4488260E+01   0.3248929E-04  -0.4488260E+01   0.3000000E+00
   0.7463415E+01   0.2928571E+01   0.4708764E-04  -0.4327093E+01   0.4708764E-04  -0.4327093E+01   0.3000000E+00
   0.7463415E+01   0.3904762E+01   0.3952805E-04  -0.4403095E+01   0.3952805E-04  -0.4403095E+01   0.3000000E+00
   0.7463415E+01   0.4880952E+01   0.5045140E-04  -0.4297127E+01   0.5045140E-04  -0.4297127E+01   0.3000000E+00
   0.7463415E+01   0.5857143E+01   0.8098068E-04  -0.4091619E+01   0.8098068E-04  -0.4091619E+01   0.3000000E+00
   0.7463415E+01   0.6833333E+01   0.7545305E-04  -0.4122323E+01   0.7545305E-04  -0.4122323E+01   0.3000000E+00
   0.7463415E+01   0.7809524E+01   0.8304732E-04  -0.4080674E+01   0.8304732E-04  -0.4080674E+01   0.3000000E+00
   0.7463415E+01   0.8785714E+01   0.7586159E-04  -0.4119978E+01   0.7586159E-04  -0.4119978E+01   0.3000000E+00
   0.7463415E+01   0.9761905E+01   0.8273234E-04  -0.4082325E+01   0.8273234E-04  -0.4082325E+01   0.3000000E+00
   0.7463415E+01   0.1073810E+02   0.1743476E-07  -0.7758584E+01   0.1743476E-07  -0.7758584E+01   0.3000000E+00
   0.7463415E+01   0.1171429E+02   0.7262911E-07  -0.7138889E+01   0.7262911E-07  -0.7138889E+01   0.3000000E+00
   0.7463415E+01   0.1269048E+02   0.1348504E-06  -0.6870148E+01   0.1348504E-06  -0.6870148E+01   0.3000000E+00
   0.7463415E+01   0.1366667E+02   0.6044089E-07  -0.7218669E+01   0.6044089E-07  -0.7218669E+01   0.3000000E+00
   0.7463415E+01   0.1464286E+02   0.8043872E-05  -0.5094535E+01   0.8043872E-05  -0.5094535E+01   0.3000000E+00
   0.7463415E+01   0.1561905E+02   0.4886179E-05  -0.5311031E+01   0.4886179E-05  -0.5311031E+01   0.3000000E+00
   0.7463415E+01   0.1659524E+02   0.9254506E-05  -0.5033647E+01   0.9254506E-05  -0.5033647E+01   0.3000000E+00
   0.7463415E+01   0.1757143E+02   0.8161358E-05  -0.5088238E+01   0.8161358E-05  -0.5088238E+01   0.3000000E+00
   0.7463415E+01   0.1854762E+02   0.1735378E-04  -0.4760606E+01   0.1735378E-04  -0.4760606E+01   0.3000000E+00
   0.7463415E+01   0.1952381E+02   0.1173658E-04  -0.4930458E+01   0.1173658E-04  -0.4930458E+01   0.3000000E+00
   0.7463415E+01   0.2050000E+02   0.1173658E-04  -0.4930458E+01   0.1173658E-04  -0.4930458E+01   0.3000000E+00
   0.9951220E+01   0.0000000E+00   0.5429926E-04  -0.4265206E+01   0.5429926E-04  -0.4265206E+01   0.3000000E+00
   0.9951220E+01   0.9761905E+00   0.5598090E-04  -0.4251960E+01   0.5598090E-04  -0.4251960E+01   0.3000000E+00
   0.9951220E+01   0.1952381E+01   0.6660040E-04  -0.4176523E+01   0.6660040E-04  -0.4176523E+01   0.3000000E+00
   0.9951220E+01   0.2928571E+01   0.4249178E-04  -0.4371695E+01   0.4249178E-04  -0.4371695E+01   0.3000000E+00
   0.9951220E+01   0.3904762E+01   0.5862203E-04  -0.4231939E+01   0.5862203E-04  -0.4231939E+01   0.3000000E+00
   0.9951220E+01   0.4880952E+01   0.3203441E-04  -0.4494383E+01   0.3203441E-04  -0.4494383E+01   0.3000000E+00
   0.9951220E+01   0.5857143E+01   0.4597559E-04  -0.4337473E+01   0.4597559E-04  -0.4337473E+01   0.3000000E+00
   0.9951220E+01   0.6833333E+01   0.9573755E-04  -0.4018918E+01   0.9573755E-04  -0.4018918E+01   0.3000000E+00
   0.9951220E+01   0.7809524E+01   0.1366893E-03  -0.3864265E+01   0.1366893E-03  -0.3864265E+01   0.3000000E+00
   0.9951220E+01   0.8785714E+01   0.1049318E-03  -0.3979093E+01   0.1049318E-03  -0.3979093E+01   0.3000000E+00
   0.9951220E+01   0.9761905E+01   0.7782094E-04  -0.4108904E+01   0.7782094E-04  -0.4108904E+01   0.3000000E+00
   0.9951220E+01   0.1073810E+02   0.6562560E-07  -0.7182927E+01   0.6562560E-07  -0.7182927E+01   0.3000000E+00
   0.9951220E+01   0.1171429E+02   0.4011161E-07  -0.7396730E+01   0.4011161E-07  -0.7396730E+01   0.3000000E+00
   0.9951220E+01   0.1269048E+02   0.5553236E-07  -0.7255454E+01   0.5553236E-07  -0.7255454E+01   0.3000000E+00
   0.9951220E+01   0.1366667E+02   0.1688061E-07  -0.7772612E+01   0.1688061E-07  -0.7772612E+01   0.3000000E+00
   0.9951220E+01   0.1464286E+02   0.2946817E-04  -0.4530647E+01   0.2946817E-04  -0.4530647E+01   0.3000000E+00
   0.9951220E+01   0.1561905E+02   0.2545241E-04  -0.4594271E+01   0.2545241E-04  -0.4594271E+01   0.3000000E+00
   0.9951220E+01   0.1659524E+02   0.2382441E-04  -0.4622978E+01   0.2382441E-04  -0.4622978E+01   0.3000000E+00
   0.9951220E+01   0.1757143E+02   0.1801691E-04  -0.4744320E+01   0.1801691E-04  -0.4744320E+01   0.3000000E+00
   0.9951220E+01   0.1854762E+02   0.1359647E-04  -0.4866574E+01   0.1359647E-04  -0.4866574E+01   0.3000000E+00
   0.9951220E+01   0.1952381E+02   0.1966441E-04  -0.4706319E+01   0.1966441E-04  -0.4706319E+01   0.3000000E+00
   0.9951220E+01   0.2050000E+02   0.1966441E-04  -0.4706319E+01   0.1966441E-04  -0.4706319E+01   0.3000000E+00
   0.1243902E+02   0.0000000E+00   0.2420382E-04  -0.4616116E+01   0.2420382E-04  -0.4616116E+01   0.3000000E+00
   0.1243902E+02   0.9761905E+00   0.3486943E-04  -0.4457555E+01   0.3486943E-04  -0.4457555E+01   0.3000000E+00
   0.1243902E+02   0.1952381E+01   0.4149656E-04  -0.4381988E+01   0.4149656E-04  -0.4381988E+01   0.3000000E+00
   0.1243902E+02   0.2928571E+01   0.5841721E-04  -0.4233459E+01   0.5841721E-04  -0.4233459E+01   0.3000000E+00
   0.1243902E+02   0.3904762E+01   0.4996939E-04  -0.4301296E+01   0.4996939E-04  -0.4301296E+01   0.3000000E+00
   0.1243902E+02   0.4880952E+01   0.3460889E-04  -0.4460812E+01   0.3460889E-04  -0.4460812E+01   0.3000000E+00
   0.1243902E+02   0.5857143E+01   0.1957612E-04  -0.4708273E+01   0.1957612E-04  -0.4708273E+01   0.3000000E+00
   0.1243902E+02   0.6833333E+01   0.2226711E-04  -0.4652336E+01   0.2226711E-04  -0.4652336E+01   0.3000000E+00
   0.1243902E+02   0.7809524E+01   0.5182178E-04  -0.4285488E+01   0.5182178E-04  -0.4285488E+01   0.3000000E+00
   0.1243902E+02   0.8785714E+01   0.5321874E-04  -0.4273935E+01   0.5321874E-04  -0.4273935E+01   0.3000000E+00
   0.1243902E+02   0.9761905E+01   0.4831348E-04  -0.4315932E+01   0.4831348E-04  -0.4315932E+01   0.3000000E+00
   0.1243902E+02   0.1073810E+02   0.6466796E-07  -0.7189311E+01   0.6466796E-07  -0.7189311E+01   0.3000000E+00
   0.1243902E+02   0.1171429E+02   0.1999697E-06  -0.6699036E+01   0.1999697E-06  -0.6699036E+01   0.3000000E+00
   0.1243902E+02   0.1269048E+02   0.3179999E-07  -0.7497573E+01   0.3179999E-07  -0.7497573E+01   0.3000000E+00
   0.1243902E+02   0.1366667E+02   0.1934368E-07  -0.7713461E+01   0.1934368E-07  -0.7713461E+01   0.3000000E+00
   0.1243902E+02   0.1464286E+02   0.4682937E-04  -0.4329482E+01   0.4682937E-04  -0.4329482E+01   0.3000000E+00
   0.1243902E+02   0.1561905E+02   0.5309117E-04  -0.4274978E+01   0.5309117E-04  -0.4274978E+01   0.3000000E+00
   0.1243902E+02   0.1659524E+02   0.5503176E-04  -0.4259387E+01   0.5503176E-04  -0.4259387E+01   0.3000000E+00
   0.1243902E+02   0.1757143E+02   0.3899021E-04  -0.4409044E+01   0.3899021E-04  -0.4409044E+01   0.3000000E+00
   0.1243902E+02   0.1854762E+02   0.3864474E-04  -0.4412910E+01   0.3864474E-04  -0.4412910E+01   0.3000000E+00
   0.1243902E+02   0.1952381E+02   0.2945638E-04  -0.4530821E+01   0.2945638E-04  -0.4530821E+01   0.3000000E+00
   0.1243902E+02   0.2050000E+02   0.2945638E-04  -0.4530821E+01   0.2945638E-04  -0.4530821E+01   0.3000000E+00
   0.1492683E+02   0.0000000E+00   0.2971377E-04  -0.4527042E+01   0.2971377E-04  -0.4527042E+01   0.3000000E+00
   0.1492683E+02   0.9761905E+00   0.2836655E-04  -0.4547194E+01   0.2836655E-04  -0.4547194E+01   0.3000000E+00
   0.1492683E+02   0.1952381E+01   0.2438359E-04  -0.4612902E+01   0.2438359E-04  -0.4612902E+01   0.3000000E+00
   0.1492683E+02   0.2928571E+01   0.9347655E-04  -0.4029297E+01   0.9347655E-04  -0.4029297E+01   0.3000000E+00
   0.1492683E+02   0.3904762E+01   0.3436404E-04  -0.4463896E+01   0.3436404E-04  -0.4463896E+01   0.3000000E+00
   0.1492683E+02   0.4880952E+01   0.2076794E-04  -0.4682607E+01   0.2076794E-04  -0.4682607E+01   0.3000000E+00
   0.1492683E+02   0.5857143E+01   0.4731894E-04  -0.4324965E+01   0.4731894E-04  -0.4324965E+01   0.3000000E+00
   0.1492683E+02   0.6833333E+01   0.3438810E-04  -0.4463592E+01   0.3438810E-04  -0.4463592E+01   0.3000000E+00
   0.1492683E+02   0.7809524E+01   0.3104416E-04  -0.4508020E+01   0.3104416E-04  -0.4508020E+01   0.3000000E+00
   0.1492683E+02   0.8785714E+01   0.4158380E-04  -0.4381076E+01   0.4158380E-04  -0.4381076E+01   0.3000000E+00
   0.1492683E+02   0.9761905E+01   0.2630372E-04  -0.4579983E+01   0.2630372E-04  -0.4579983E+01   0.3000000E+00
   0.1492683E+02   0.1073810E+02   0.4360910E-07  -0.7360423E+01   0.4360910E-07  -0.7360423E+01   0.3000000E+00
   0.1492683E+02   0.1171429E+02   0.3587590E-07  -0.7445197E+01   0.3587590E-07  -0.7445197E+01   0.3000000E+00
   0.1492683E+02   0.1269048E+02   0.1972064E-07  -0.7705079E+01   0.1972064E-07  -0.7705079E+01   0.3000000E+00
   0.1492683E+02   0.1366667E+02   0.8439017E-08  -0.8073708E+01   0.8439017E-08  -0.8073708E+01   0.3000000E+00
   0.1492683E+02   0.1464286E+02   0.3311580E-04  -0.4479965E+01   0.3311580E-04  -0.4479965E+01   0.3000000E+00
   0.1492683E+02   0.1561905E+02   0.3884233E-04  -0.4410695E+01   0.3884233E-04  -0.4410695E+01   0.3000000E+00
   0.1492683E+02   0.1659524E+02   0.6035903E-04  -0.4219258E+01   0.6035903E-04  -0.4219258E+01   0.3000000E+00
   0.1492683E+02   0.1757143E+02   0.1822921E-03  -0.3739232E+01   0.1822921E-03  -0.3739232E+01   0.3000000E+00
   0.1492683E+02   0.1854762E+02   0.6575335E-04  -0.4182082E+01   0.6575335E-04  -0.4182082E+01   0.3000000E+00
   0.1492683E+02   0.1952381E+02   0.4638196E-04  -0.4333651E+01   0.4638196E-04  -0.4333651E+01   0.3000000E+00
   0.1492683E+02   0.2050000E+02   0.4638196E-04  -0.4333651E+01   0.4638196E-04  -0.4333651E+01   0.3000000E+00
   0.1741463E+02   0.0000000E+00   0.5015462E-04  -0.4299689E+01   0.5015462E-04  -0.4299689E+01   0.3000000E+00
   0.1741463E+02   0.9761905E+00   0.3553473E-04  -0.4449347E+01   0.3553473E-04  -0.4449347E+01   0.3000000E+00
   0.1741463E+02   0.1952381E+01   0.3110942E-04  -0.4507108E+01   0.3110942E-04  -0.4507108E+01   0.3000000E+00
   0.1741463E+02   0.2928571E+01   0.2529257E-04  -0.4597007E+01   0.2529257E-04  -0.4597007E+01   0.3000000E+00
   0.1741463E+02   0.3904762E+01   0.5492730E-04  -0.4260212E+01   0.5492730E-04  -0.4260212E+01   0.3000000E+00
   0.1741463E+02   0.4880952E+01   0.1987993E-04  -0.4701585E+01   0.1987993E-04  -0.4701585E+01   0.3000000E+00
   0.1741463E+02   0.5857143E+01   0.2676006E-04  -0.4572513E+01   0.2676006E-04  -0.4572513E+01   0.3000000E+00
   0.1741463E+02   0.6833333E+01   0.2636957E-04  -0.4578897E+01   0.2636957E-04  -0.4578897E+01   0.3000000E+00
   0.1741463E+02   0.7809524E+01   0.5159427E-04  -0.4287399E+01   0.5159427E-04  -0.4287399E+01   0.3000000E+00
   0.1741463E+02   0.8785714E+01   0.4037499E-04  -0.4393888E+01   0.4037499E-04  -0.4393888E+01   0.3000000E+00
   0.1741463E+02   0.9761905E+01   0.7756456E-04  -0.4110337E+01   0.7756456E-04  -0.4110337E+01   0.3000000E+00
   0.1741463E+02   0.1073810E+02   0.5627587E-07  -0.7249678E+01   0.5627587E-07  -0.7249678E+01   0.3000000E+00
   0.1741463E+02   0.1171429E+02   0.4462820E-07  -0.7350391E+01   0.4462820E-07  -0.7350391E+01   0.3000000E+00
   0.1741463E+02   0.1269048E+02   0.1170207E-07  -0.7931737E+01   0.1170207E-07  -0.7931737E+01   0.3000000E+00
   0.1741463E+02   0.1366667E+02   0.1432442E-07  -0.7843923E+01   0.1432442E-07  -0.7843923E+01   0.3000000E+00
   0.1741463E+02   0.1464286E+02   0.3162066E-04  -0.4500029E+01   0.3162066E-04  -0.4500029E+01   0.3000000E+00
   0.1741463E+02   0.1561905E+02   0.2979708E-04  -0.4525826E+01   0.2979708E-04  -0.4525826E+01   0.3000000E+00
   0.1741463E+02   0.1659524E+02   0.1421824E-03  -0.3847154E+01   0.1421824E-03  -0.3847154E+01   0.3000000E+00
   0.1741463E+02   0.1757143E+02   0.9355136E-04  -0.4028950E+01   0.9355136E-04  -0.4028950E+01   0.3000000E+00
   0.1741463E+02   0.1854762E+02   0.6407220E-04  -0.4193330E+01   0.6407220E-04  -0.4193330E+01   0.3000000E+00
   0.1741463E+02   0.1952381E+02   0.7127250E-04  -0.4147078E+01   0.7127250E-04  -0.4147078E+01   0.3000000E+00
   0.1741463E+02   0.2050000E+02   0.7127250E-04  -0.4147078E+01   0.7127250E-04  -0.4147078E+01   0.3000000E+00
   0.1990244E+02   0.0000000E+00   0.5143972E-04  -0.4288701E+01   0.5143972E-04  -0.4288701E+01   0.3000000E+00
   0.1990244E+02   0.9761905E+00   0.3526569E-04  -0.4452648E+01   0.3526569E-04  -0.4452648E+01   0.3000000E+00
   0.1990244E+02   0.1952381E+01   0.2662660E-04  -0.4574684E+01   0.2662660E-04  -0.4574684E+01   0.3000000E+00
   0.1990244E+02   0.2928571E+01   0.4801486E-04  -0.4318624E+01   0.4801486E-04  -0.4318624E+01   0.3000000E+00
   0.1990244E+02   0.3904762E+01   0.4333283E-04  -0.4363183E+01   0.4333283E-04  -0.4363183E+01   0.3000000E+00
   0.1990244E+02   0.4880952E+01   0.5116781E-04  -0.4291003E+01   0.5116781E-04  -0.4291003E+01   0.3000000E+00
   0.1990244E+02   0.5857143E+01   0.4253854E-04  -0.4371217E+01   0.4253854E-04  -0.4371217E+01   0.3000000E+00
   0.1990244E+02   0.6833333E+01   0.1011607E-03  -0.3994988E+01   0.1011607E-03  -0.3994988E+01   0.3000000E+00
   0.1990244E+02   0.7809524E+01   0.1214874E-03  -0.3915469E+01   0.1214874E-03  -0.3915469E+01   0.3000000E+00
   0.1990244E+02   0.8785714E+01   0.1173441E-03  -0.3930539E+01   0.1173441E-03  -0.3930539E+01   0.3000000E+00
   0.1990244E+02   0.9761905E+01   0.9997404E-04  -0.4000113E+01   0.9997404E-04  -0.4000113E+01   0.3000000E+00
   0.1990244E+02   0.1073810E+02   0.5974382E-07  -0.7223707E+01   0.5974382E-07  -0.7223707E+01   0.3000000E+00
   0.1990244E+02   0.1171429E+02   0.7210085E-07  -0.7142060E+01   0.7210085E-07  -0.7142060E+01   0.3000000E+00
   0.1990244E+02   0.1269048E+02   0.1980958E-07  -0.7703125E+01   0.1980958E-07  -0.7703125E+01   0.3000000E+00
   0.1990244E+02   0.1366667E+02   0.2224386E-07  -0.7652790E+01   0.2224386E-07  -0.7652790E+01   0.3000000E+00
   0.1990244E+02   0.1464286E+02   0.2641972E-04  -0.4578072E+01   0.2641972E-04  -0.4578072E+01   0.3000000E+00
   0.1990244E+02   0.1561905E+02   0.3816087E-04  -0.4418382E+01   0.3816087E-04  -0.4418382E+01   0.3000000E+00
   0.1990244E+02   0.1659524E+02   0.2352140E-04  -0.4628537E+01   0.2352140E-04  -0.4628537E+01   0.3000000E+00
   0.1990244E+02   0.1757143E+02   0.1910998E-04  -0.4718740E+01   0.1910998E-04  -0.4718740E+01   0.3000000E+00
   0.1990244E+02   0.1854762E+02   0.3320866E-04  -0.4478749E+01   0.3320866E-04  -0.4478749E+01   0.3000000E+00
   0.1990244E+02   0.1952381E+02   0.3748386E-04  -0.4426156E+01   0.3748386E-04  -0.4426156E+01   0.3000000E+00
   0.1990244E+02   0.2050000E+02   0.3748386E-04  -0.4426156E+01   0.3748386E-04  -0.4426156E+01   0.3000000E+00
   0.2239024E+02   0.0000000E+00   0.1703083E-03  -0.3768764E+01   0.1703083E-03  -0.3768764E+01   0.3000000E+00
   0.2239024E+02   0.9761905E+00   0.6212886E-04  -0.4206707E+01   0.6212886E-04  -0.4206707E+01   0.3000000E+00
   0.2239024E+02   0.1952381E+01   0.6354260E-04  -0.4196935E+01   0.6354260E-04  -0.4196935E+01   0.3000000E+00
   0.2239024E+02   0.2928571E+01   0.8795370E-04  -0.4055746E+01   0.8795370E-04  -0.4055746E+01   0.3000000E+00
   0.2239024E+02   0.3904762E+01   0.4011742E-04  -0.4396667E+01   0.4011742E-04  -0.4396667E+01   0.3000000E+00
   0.2239024E+02   0.4880952E+01   0.5067895E-04  -0.4295172E+01   0.5067895E-04  -0.4295172E+01   0.3000000E+00
   0.2239024E+02   0.5857143E+01   0.8303071E-04  -0.4080761E+01   0.8303071E-04  -0.4080761E+01   0.3000000E+00
   0.2239024E+02   0.6833333E+01   0.1341838E-03  -0.3872300E+01   0.1341838E-03  -0.3872300E+01   0.3000000E+00
   0.2239024E+02   0.7809524E+01   0.9113214E-04  -0.4040328E+01   0.9113214E-04  -0.4040328E+01   0.3000000E+00
   0.2239024E+02   0.8785714E+01   0.1753021E-03  -0.3756213E+01   0.1753021E-03  -0.3756213E+01   0.3000000E+00
   0.2239024E+02   0.9761905E+01   0.9464287E-04  -0.4023912E+01   0.9464287E-04  -0.4023912E+01   0.3000000E+00
   0.2239024E+02   0.1073810E+02   0.3094359E-07  -0.7509429E+01   0.3094359E-07  -0.7509429E+01   0.3000000E+00
   0.2239024E+02   0.1171429E+02   0.1009728E-07  -0.7995796E+01   0.1009728E-07  -0.7995796E+01   0.3000000E+00
   0.2239024E+02   0.1269048E+02   0.3272211E-08  -0.8485159E+01   0.3272211E-08  -0.8485159E+01   0.3000000E+00
   0.2239024E+02   0.1366667E+02   0.3411547E-08  -0.8467049E+01   0.3411547E-08  -0.8467049E+01   0.3000000E+00
   0.2239024E+02   0.1464286E+02   0.5599770E-04  -0.4251830E+01   0.5599770E-04  -0.4251830E+01   0.3000000E+00
   0.2239024E+02   0.1561905E+02   0.2716449E-04  -0.4565998E+01   0.2716449E-04  -0.4565998E+01   0.3000000E+00
   0.2239024E+02   0.1659524E+02   0.1507308E-04  -0.4821798E+01   0.1507308E-04  -0.4821798E+01   0.3000000E+00
   0.2239024E+02   0.1757143E+02   0.5650311E-05  -0.5247928E+01   0.5650311E-05  -0.5247928E+01   0.3000000E+00
   0.2239024E+02   0.1854762E+02   0.5336183E-05  -0.5272769E+01   0.5336183E-05  -0.5272769E+01   0.3000000E+00
   0.2239024E+02   0.1952381E+02   0.1020431E-04  -0.4991216E+01   0.1020431E-04  -0.4991216E+01   0.3000000E+00
   0.2239024E+02   0.2050000E+02   0.1020431E-04  -0.4991216E+01   0.1020431E-04  -0.4991216E+01   0.3000000E+00
   0.2487805E+02   0.0000000E+00   0.1990210E-03  -0.3701101E+01   0.1990210E-03  -0.3701101E+01   0.3000000E+00
   0.2487805E+02   0.9761905E+00   0.1386026E-03  -0.3858229E+01   0.1386026E-03  -0.3858229E+01   0.3000000E+00
   0.2487805E+02   0.1952381E+01   0.7522703E-04  -0.4123626E+01   0.7522703E-04  -0.4123626E+01   0.3000000E+00
   0.2487805E+02   0.2928571E+01   0.1086912E-03  -0.3963806E+01   0.1086912E-03  -0.3963806E+01   0.3000000E+00
   0.2487805E+02   0.3904762E+01   0.8108602E-04  -0.4091054E+01   0.8108602E-04  -0.4091054E+01   0.3000000E+00
   0.2487805E+02   0.4880952E+01   0.4372896E-04  -0.4359231E+01   0.4372896E-04  -0.4359231E+01   0.3000000E+00
   0.2487805E+02   0.5857143E+01   0.5223280E-04  -0.4282057E+01   0.5223280E-04  -0.4282057E+01   0.3000000E+00
   0.2487805E+02   0.6833333E+01   0.4557734E-04  -0.4341251E+01   0.4557734E-04  -0.4341251E+01   0.3000000E+00
   0.2487805E+02   0.7809524E+01   0.6238411E-04  -0.4204926E+01   0.6238411E-04  -0.4204926E+01   0.3000000E+00
   0.2487805E+02   0.8785714E+01   0.9262977E-04  -0.4033249E+01   0.9262977E-04  -0.4033249E+01   0.3000000E+00
   0.2487805E+02   0.9761905E+01   0.7438175E-04  -0.4128534E+01   0.7438175E-04  -0.4128534E+01   0.3000000E+00
   0.2487805E+02   0.1073810E+02   0.2995409E-07  -0.7523544E+01   0.2995409E-07  -0.7523544E+01   0.3000000E+00
   0.2487805E+02   0.1171429E+02   0.4275777E-08  -0.8368985E+01   0.4275777E-08  -0.8368985E+01   0.3000000E+00
   0.2487805E+02   0.1269048E+02   0.1028772E-08  -0.8987681E+01   0.1028772E-08  -0.8987681E+01   0.3000000E+00
   0.2487805E+02   0.1366667E+02   0.3699752E-08  -0.8431827E+01   0.3699752E-08  -0.8431827E+01   0.3000000E+00
   0.2487805E+02   0.1464286E+02   0.3286508E-04  -0.4483265E+01   0.3286508E-04  -0.4483265E+01   0.3000000E+00
   0.2487805E+02   0.1561905E+02   0.1101888E-04  -0.4957862E+01   0.1101888E-04  -0.4957862E+01   0.3000000E+00
   0.2487805E+02   0.1659524E+02   0.7595155E-05  -0.5119463E+01   0.7595155E-05  -0.5119463E+01   0.3000000E+00
   0.2487805E+02   0.1757143E+02   0.1313934E-04  -0.4881427E+01   0.1313934E-04  -0.4881427E+01   0.3000000E+00
   0.2487805E+02   0.1854762E+02   0.4758871E-05  -0.5322496E+01   0.4758871E-05  -0.5322496E+01   0.3000000E+00
   0.2487805E+02   0.1952381E+02   0.7947128E-05  -0.5099790E+01   0.7947128E-05  -0.5099790E+01   0.3000000E+00
   0.2487805E+02   0.2050000E+02   0.7947128E-05  -0.5099790E+01   0.7947128E-05  -0.5099790E+01   0.3000000E+00
   0.2736585E+02   0.0000000E+00   0.1047955E-03  -0.3979657E+01   0.1047955E-03  -0.3979657E+01   0.3000000E+00
   0.2736585E+02   0.9761905E+00   0.9262051E-04  -0.4033293E+01   0.9262051E-04  -0.4033293E+01   0.3000000E+00
   0.2736585E+02   0.1952381E+01   0.1638573E-04  -0.4785534E+01   0.1638573E-04  -0.4785534E+01   0.3000000E+00
   0.2736585E+02   0.2928571E+01   0.2843755E-04  -0.4546108E+01   0.2843755E-04  -0.4546108E+01   0.3000000E+00
   0.2736585E+02   0.3904762E+01   0.3591699E-04  -0.4444700E+01   0.3591699E-04  -0.4444700E+01   0.3000000E+00
   0.2736585E+02   0.4880952E+01   0.5477920E-04  -0.4261384E+01   0.5477920E-04  -0.4261384E+01   0.3000000E+00
   0.2736585E+02   0.5857143E+01   0.3679311E-04  -0.4434234E+01   0.3679311E-04  -0.4434234E+01   0.3000000E+00
   0.2736585E+02   0.6833333E+01   0.2566711E-04  -0.4590623E+01   0.2566711E-04  -0.4590623E+01   0.3000000E+00
   0.2736585E+02   0.7809524E+01   0.3109387E-04  -0.4507325E+01   0.3109387E-04  -0.4507325E+01   0.3000000E+00
   0.2736585E+02   0.8785714E+01   0.4305639E-04  -0.4365962E+01   0.4305639E-04  -0.4365962E+01   0.3000000E+00
   0.2736585E+02   0.9761905E+01   0.8654033E-04  -0.4062781E+01   0.8654033E-04  -0.4062781E+01   0.3000000E+00
   0.2736585E+02   0.1073810E+02   0.1058122E-06  -0.6975464E+01   0.1058122E-06  -0.6975464E+01   0.3000000E+00
   0.2736585E+02   0.1171429E+02   0.1095248E-07  -0.7960488E+01   0.1095248E-07  -0.7960488E+01   0.3000000E+00
   0.2736585E+02   0.1269048E+02   0.2548910E-08  -0.8593645E+01   0.2548910E-08  -0.8593645E+01   0.3000000E+00
   0.2736585E+02   0.1366667E+02   0.7420644E-08  -0.8129558E+01   0.7420644E-08  -0.8129558E+01   0.3000000E+00
   0.2736585E+02   0.1464286E+02   0.1072750E-04  -0.4969501E+01   0.1072750E-04  -0.4969501E+01   0.3000000E+00
   0.2736585E+02   0.1561905E+02   0.7515072E-05  -0.5124067E+01   0.7515072E-05  -0.5124067E+01   0.3000000E+00
   0.2736585E+02   0.1659524E+02   0.1450235E-04  -0.4838562E+01   0.1450235E-04  -0.4838562E+01   0.3000000E+00
   0.2736585E+02   0.1757143E+02   0.2709937E-04  -0.4567041E+01   0.2709937E-04  -0.4567041E+01   0.3000000E+00
   0.2736585E+02   0.1854762E+02   0.1229276E-04  -0.4910351E+01   0.1229276E-04  -0.4910351E+01   0.3000000E+00
   0.2736585E+02   0.1952381E+02   0.1389196E-04  -0.4857236E+01   0.1389196E-04  -0.4857236E+01   0.3000000E+00
   0.2736585E+02   0.2050000E+02   0.1389196E-04  -0.4857236E+01   0.1389196E-04  -0.4857236E+01   0.3000000E+00