title="2d vectors xz, t=    0.150E+03"
variables="x","z","vx","vz"
zone i=    21, j=    41, T="   0.150E+03"
  0.124390E+01  0.488053E+00  0.598508E-06 -0.107722E-07
  0.124390E+01  0.146416E+01  0.480122E-06 -0.155373E-07
  0.124390E+01  0.244026E+01  0.478660E-06 -0.118605E-07
  0.124390E+01  0.341637E+01  0.568402E-06  0.737876E-08
  0.124390E+01  0.439248E+01  0.453682E-06  0.222070E-07
  0.124390E+01  0.536858E+01  0.275141E-06  0.116792E-08
  0.124390E+01  0.634469E+01  0.235445E-06 -0.149902E-07
  0.124390E+01  0.732079E+01  0.260375E-06 -0.130435E-07
  0.124390E+01  0.829690E+01  0.614026E-06  0.876946E-09
  0.124390E+01  0.927300E+01  0.513652E-06  0.124162E-08
  0.124390E+01  0.102491E+02  0.567553E-06 -0.544839E-08
  0.124390E+01  0.112252E+02  0.284645E-09  0.225898E-10
  0.124390E+01  0.122013E+02  0.368350E-09 -0.239309E-10
  0.124390E+01  0.131774E+02  0.130179E-08 -0.691473E-10
  0.124390E+01  0.141535E+02  0.172882E-08  0.484550E-10
  0.124390E+01  0.151296E+02  0.622675E-09 -0.892522E-10
  0.124390E+01  0.161057E+02  0.114297E-06 -0.151834E-07
  0.124390E+01  0.170818E+02  0.102103E-06 -0.277307E-08
  0.124390E+01  0.180580E+02  0.124051E-06  0.756736E-08
  0.124390E+01  0.190341E+02  0.137185E-06  0.681850E-08
  0.124390E+01  0.200102E+02  0.379630E-06  0.821279E-07
  0.373171E+01  0.487864E+00  0.693969E-06 -0.452543E-07
  0.373171E+01  0.146359E+01  0.382756E-06 -0.802966E-07
  0.373171E+01  0.243932E+01  0.553167E-06 -0.291676E-07
  0.373171E+01  0.341505E+01  0.613238E-06  0.569557E-08
  0.373171E+01  0.439078E+01  0.538762E-06  0.288349E-07
  0.373171E+01  0.536651E+01  0.556470E-06  0.375452E-07
  0.373171E+01  0.634223E+01  0.292060E-06  0.110547E-07
  0.373171E+01  0.731796E+01  0.310421E-06 -0.150533E-07
  0.373171E+01  0.829369E+01  0.473614E-06 -0.218619E-07
  0.373171E+01  0.926942E+01  0.639229E-06 -0.190121E-07
  0.373171E+01  0.102451E+02  0.541348E-06 -0.128758E-07
  0.373171E+01  0.112209E+02  0.136030E-09 -0.133484E-11
  0.373171E+01  0.121966E+02  0.111052E-08 -0.559968E-10
  0.373171E+01  0.131723E+02  0.456000E-09 -0.618148E-11
  0.373171E+01  0.141481E+02  0.170349E-08  0.283481E-10
  0.373171E+01  0.151238E+02  0.103363E-06 -0.191543E-07
  0.373171E+01  0.160995E+02  0.880642E-07 -0.197690E-07
  0.373171E+01  0.170752E+02  0.635710E-07 -0.950287E-08
  0.373171E+01  0.180510E+02  0.767746E-07 -0.298761E-08
  0.373171E+01  0.190267E+02  0.171327E-06 -0.180279E-08
  0.373171E+01  0.200024E+02  0.518990E-06 -0.328690E-07
  0.621951E+01  0.487729E+00  0.911345E-06 -0.302849E-07
  0.621951E+01  0.146319E+01  0.171340E-06 -0.245918E-07
  0.621951E+01  0.243864E+01  0.360382E-06 -0.247147E-07
  0.621951E+01  0.341410E+01  0.751475E-06 -0.376970E-09
  0.621951E+01  0.438956E+01  0.414595E-06  0.256913E-07
  0.621951E+01  0.536502E+01  0.427653E-06  0.562748E-07
  0.621951E+01  0.634047E+01  0.315633E-06  0.419402E-07
  0.621951E+01  0.731593E+01  0.530416E-06 -0.861406E-08
  0.621951E+01  0.829139E+01  0.577120E-06 -0.495160E-07
  0.621951E+01  0.926685E+01  0.609926E-06 -0.266809E-07
  0.621951E+01  0.102423E+02  0.557179E-06  0.644568E-10
  0.621951E+01  0.112178E+02  0.928763E-10  0.744759E-13
  0.621951E+01  0.121932E+02  0.880320E-09  0.974481E-10
  0.621951E+01  0.131687E+02  0.696351E-09  0.895143E-10
  0.621951E+01  0.141441E+02  0.163632E-08  0.223832E-09
  0.621951E+01  0.151196E+02  0.121165E-06 -0.140436E-09
  0.621951E+01  0.160951E+02  0.814765E-07 -0.317224E-08
  0.621951E+01  0.170705E+02  0.620089E-07 -0.844403E-08
  0.621951E+01  0.180460E+02  0.100533E-06 -0.207913E-07
  0.621951E+01  0.190214E+02  0.146776E-06 -0.296246E-07
  0.621951E+01  0.199969E+02  0.351973E-06 -0.345196E-07
  0.870732E+01  0.487494E+00  0.550443E-06  0.346702E-07
  0.870732E+01  0.146248E+01  0.196314E-06  0.178548E-07
  0.870732E+01  0.243747E+01  0.331566E-06 -0.289981E-07
  0.870732E+01  0.341246E+01  0.470217E-06 -0.266019E-07
  0.870732E+01  0.438744E+01  0.354261E-06  0.356895E-08
  0.870732E+01  0.536243E+01  0.376202E-06 -0.943023E-08
  0.870732E+01  0.633742E+01  0.544769E-06  0.115949E-07
  0.870732E+01  0.731241E+01  0.535298E-06 -0.285483E-08
  0.870732E+01  0.828739E+01  0.622333E-06 -0.257393E-07
  0.870732E+01  0.926238E+01  0.565560E-06 -0.363359E-07
  0.870732E+01  0.102374E+02  0.592571E-06 -0.162256E-07
  0.870732E+01  0.112124E+02  0.125188E-09  0.543219E-10
  0.870732E+01  0.121873E+02  0.568055E-09  0.198137E-09
  0.870732E+01  0.131623E+02  0.118755E-08  0.425635E-09
  0.870732E+01  0.141373E+02  0.745343E-09  0.710402E-09
  0.870732E+01  0.151123E+02  0.122812E-06 -0.125288E-08
  0.870732E+01  0.160873E+02  0.713185E-07 -0.300074E-08
  0.870732E+01  0.170623E+02  0.126945E-06 -0.188379E-07
  0.870732E+01  0.180373E+02  0.109716E-06 -0.336277E-07
  0.870732E+01  0.190123E+02  0.240680E-06 -0.583894E-07
  0.870732E+01  0.199872E+02  0.172544E-06 -0.201649E-07
  0.111951E+02  0.487206E+00  0.339998E-06  0.358597E-07
  0.111951E+02  0.146162E+01  0.328742E-06  0.522293E-07
  0.111951E+02  0.243603E+01  0.395570E-06  0.680356E-08
  0.111951E+02  0.341044E+01  0.278550E-06 -0.232746E-07
  0.111951E+02  0.438486E+01  0.415543E-06 -0.691664E-07
  0.111951E+02  0.535927E+01  0.231695E-06 -0.766641E-07
  0.111951E+02  0.633368E+01  0.294727E-06 -0.741596E-07
  0.111951E+02  0.730809E+01  0.501190E-06 -0.330550E-07
  0.111951E+02  0.828250E+01  0.654756E-06 -0.163087E-07
  0.111951E+02  0.925692E+01  0.523745E-06 -0.267232E-07
  0.111951E+02  0.102313E+02  0.419497E-06 -0.115587E-07
  0.111951E+02  0.112057E+02  0.433308E-09  0.407564E-09
  0.111951E+02  0.121802E+02  0.302016E-09  0.145967E-09
  0.111951E+02  0.131546E+02  0.425741E-09  0.283981E-09
  0.111951E+02  0.141290E+02  0.118448E-09  0.289434E-09
  0.111951E+02  0.151034E+02  0.182055E-06 -0.552241E-08
  0.111951E+02  0.160778E+02  0.168285E-06 -0.303083E-07
  0.111951E+02  0.170522E+02  0.176416E-06 -0.400005E-07
  0.111951E+02  0.180266E+02  0.154376E-06 -0.397758E-07
  0.111951E+02  0.190010E+02  0.130754E-06 -0.206221E-07
  0.111951E+02  0.199755E+02  0.193467E-06 -0.172423E-07
  0.136829E+02  0.487034E+00  0.191598E-06 -0.382284E-08
  0.136829E+02  0.146110E+01  0.264226E-06 -0.372046E-08
  0.136829E+02  0.243517E+01  0.302068E-06  0.228906E-07
  0.136829E+02  0.340924E+01  0.408851E-06 -0.821700E-08
  0.136829E+02  0.438330E+01  0.335938E-06 -0.464979E-07
  0.136829E+02  0.535737E+01  0.246244E-06 -0.440764E-07
  0.136829E+02  0.633144E+01  0.160984E-06 -0.392025E-07
  0.136829E+02  0.730551E+01  0.192279E-06 -0.424723E-07
  0.136829E+02  0.827957E+01  0.428716E-06 -0.320802E-07
  0.136829E+02  0.925364E+01  0.422871E-06 -0.406734E-08
  0.136829E+02  0.102277E+02  0.370444E-06 -0.877310E-09
  0.136829E+02  0.112018E+02  0.390903E-09  0.325484E-09
  0.136829E+02  0.121758E+02  0.820737E-09  0.445860E-09
  0.136829E+02  0.131499E+02  0.140178E-09  0.243335E-09
  0.136829E+02  0.141240E+02  0.896741E-10  0.261840E-09
  0.136829E+02  0.150980E+02  0.198293E-06  0.121454E-07
  0.136829E+02  0.160721E+02  0.247031E-06  0.286205E-07
  0.136829E+02  0.170462E+02  0.298862E-06  0.331728E-07
  0.136829E+02  0.180202E+02  0.236108E-06  0.302100E-08
  0.136829E+02  0.189943E+02  0.237852E-06 -0.336835E-07
  0.136829E+02  0.199684E+02  0.182705E-06 -0.245809E-07
  0.161707E+02  0.486923E+00  0.165227E-06 -0.106010E-07
  0.161707E+02  0.146077E+01  0.158929E-06 -0.188667E-07
  0.161707E+02  0.243462E+01  0.125790E-06 -0.191638E-07
  0.161707E+02  0.340846E+01  0.456473E-06 -0.208989E-07
  0.161707E+02  0.438231E+01  0.185495E-06 -0.817882E-08
  0.161707E+02  0.535615E+01  0.118186E-06 -0.449390E-08
  0.161707E+02  0.633000E+01  0.271773E-06 -0.445008E-08
  0.161707E+02  0.730385E+01  0.230957E-06 -0.962380E-08
  0.161707E+02  0.827769E+01  0.245801E-06 -0.318550E-08
  0.161707E+02  0.925154E+01  0.357926E-06  0.138564E-07
  0.161707E+02  0.102254E+02  0.240634E-06  0.638994E-08
  0.161707E+02  0.111992E+02  0.414247E-09  0.664387E-10
  0.161707E+02  0.121731E+02  0.350629E-09  0.532417E-10
  0.161707E+02  0.131469E+02  0.172568E-09  0.129422E-09
  0.161707E+02  0.141208E+02  0.566312E-10  0.843869E-10
  0.161707E+02  0.150946E+02  0.188979E-06  0.688311E-08
  0.161707E+02  0.160685E+02  0.211098E-06  0.375072E-07
  0.161707E+02  0.170423E+02  0.293915E-06  0.434150E-07
  0.161707E+02  0.180162E+02  0.761540E-06 -0.383010E-07
  0.161707E+02  0.189900E+02  0.268464E-06 -0.376431E-07
  0.161707E+02  0.199638E+02  0.201042E-06 -0.171242E-07
  0.186585E+02  0.486836E+00  0.199637E-06 -0.757029E-08
  0.186585E+02  0.146051E+01  0.145682E-06 -0.163052E-07
  0.186585E+02  0.243418E+01  0.146706E-06 -0.171857E-07
  0.186585E+02  0.340785E+01  0.134083E-06  0.846707E-08
  0.186585E+02  0.438153E+01  0.295868E-06  0.404514E-07
  0.186585E+02  0.535520E+01  0.115503E-06  0.127145E-07
  0.186585E+02  0.632887E+01  0.174139E-06  0.258625E-07
  0.186585E+02  0.730254E+01  0.173111E-06  0.340654E-07
  0.186585E+02  0.827622E+01  0.319849E-06  0.238411E-07
  0.186585E+02  0.924989E+01  0.231235E-06  0.130865E-07
  0.186585E+02  0.102236E+02  0.400092E-06  0.139925E-07
  0.186585E+02  0.111972E+02  0.315684E-09  0.204630E-09
  0.186585E+02  0.121709E+02  0.306316E-09  0.146269E-09
  0.186585E+02  0.131446E+02  0.102369E-09  0.815879E-10
  0.186585E+02  0.141183E+02  0.133829E-09  0.845182E-10
  0.186585E+02  0.150919E+02  0.266690E-06 -0.182936E-07
  0.186585E+02  0.160656E+02  0.211535E-06 -0.701224E-07
  0.186585E+02  0.170393E+02  0.783892E-06 -0.207349E-06
  0.186585E+02  0.180129E+02  0.485679E-06 -0.582191E-07
  0.186585E+02  0.189866E+02  0.343104E-06  0.966975E-09
  0.186585E+02  0.199603E+02  0.385070E-06 -0.136718E-07
  0.211463E+02  0.486754E+00  0.254766E-06 -0.713464E-08
  0.211463E+02  0.146026E+01  0.174868E-06 -0.534096E-08
  0.211463E+02  0.243377E+01  0.128547E-06  0.101272E-07
  0.211463E+02  0.340728E+01  0.217528E-06  0.664258E-08
  0.211463E+02  0.438079E+01  0.182501E-06  0.145683E-07
  0.211463E+02  0.535430E+01  0.196514E-06  0.600869E-07
  0.211463E+02  0.632781E+01  0.146976E-06  0.523021E-07
  0.211463E+02  0.730132E+01  0.318953E-06  0.408360E-07
  0.211463E+02  0.827482E+01  0.369464E-06  0.159012E-07
  0.211463E+02  0.924833E+01  0.377266E-06 -0.125303E-07
  0.211463E+02  0.102218E+02  0.345950E-06 -0.215725E-07
  0.211463E+02  0.111954E+02  0.205862E-09  0.307669E-09
  0.211463E+02  0.121689E+02  0.268455E-09  0.409602E-09
  0.211463E+02  0.131424E+02  0.113051E-09  0.286400E-09
  0.211463E+02  0.141159E+02  0.283056E-09  0.397658E-09
  0.211463E+02  0.150894E+02  0.468272E-06 -0.554442E-07
  0.211463E+02  0.160629E+02  0.663805E-06 -0.194161E-06
  0.211463E+02  0.170364E+02  0.387670E-06 -0.120261E-06
  0.211463E+02  0.180099E+02  0.264140E-06 -0.876812E-07
  0.211463E+02  0.189834E+02  0.379972E-06 -0.559654E-07
  0.211463E+02  0.199569E+02  0.395678E-06 -0.237583E-07
  0.236341E+02  0.486586E+00  0.501576E-06  0.742170E-08
  0.236341E+02  0.145976E+01  0.195169E-06  0.113721E-07
  0.236341E+02  0.243293E+01  0.212790E-06  0.153762E-07
  0.236341E+02  0.340610E+01  0.312858E-06  0.433870E-08
  0.236341E+02  0.437928E+01  0.147894E-06 -0.236067E-08
  0.236341E+02  0.535245E+01  0.174081E-06 -0.111745E-08
  0.236341E+02  0.632562E+01  0.245605E-06  0.184090E-07
  0.236341E+02  0.729879E+01  0.370429E-06  0.180887E-07
  0.236341E+02  0.827197E+01  0.259291E-06  0.301370E-07
  0.236341E+02  0.924514E+01  0.503499E-06  0.363072E-07
  0.236341E+02  0.102183E+02  0.272234E-06  0.102737E-07
  0.236341E+02  0.111915E+02  0.870628E-10  0.143295E-09
  0.236341E+02  0.121647E+02  0.504098E-10  0.126123E-09
  0.236341E+02  0.131378E+02  0.435066E-10  0.111172E-09
  0.236341E+02  0.141110E+02  0.609714E-10  0.956611E-10
  0.236341E+02  0.150842E+02  0.956799E-06 -0.824743E-07
  0.236341E+02  0.160573E+02  0.514026E-06 -0.506476E-07
  0.236341E+02  0.170305E+02  0.347364E-06 -0.203350E-08
  0.236341E+02  0.180037E+02  0.160430E-06 -0.152386E-07
  0.236341E+02  0.189769E+02  0.161874E-06 -0.250894E-07
  0.236341E+02  0.199500E+02  0.301656E-06 -0.190191E-07
  0.261220E+02  0.486037E+00  0.593734E-06  0.361093E-07
  0.261220E+02  0.145811E+01  0.400830E-06  0.435460E-07
  0.261220E+02  0.243018E+01  0.213058E-06  0.368273E-07
  0.261220E+02  0.340226E+01  0.330595E-06  0.947661E-07
  0.261220E+02  0.437433E+01  0.292787E-06  0.736144E-07
  0.261220E+02  0.534640E+01  0.188910E-06  0.801216E-08
  0.261220E+02  0.631848E+01  0.242537E-06 -0.196774E-07
  0.261220E+02  0.729055E+01  0.207217E-06 -0.909392E-09
  0.261220E+02  0.826262E+01  0.276525E-06  0.256436E-07
  0.261220E+02  0.923470E+01  0.421808E-06  0.469210E-07
  0.261220E+02  0.102068E+02  0.354295E-06  0.265495E-07
  0.261220E+02  0.111788E+02  0.142088E-09  0.125121E-09
  0.261220E+02  0.121509E+02  0.337084E-10  0.113682E-09
  0.261220E+02  0.131230E+02  0.215863E-10  0.768980E-10
  0.261220E+02  0.140951E+02  0.101543E-09  0.577804E-10
  0.261220E+02  0.150671E+02  0.812292E-06  0.650553E-07
  0.261220E+02  0.160392E+02  0.320652E-06  0.116910E-06
  0.261220E+02  0.170113E+02  0.258901E-06  0.814144E-07
  0.261220E+02  0.179834E+02  0.465717E-06  0.475091E-07
  0.261220E+02  0.189554E+02  0.175850E-06 -0.104179E-07
  0.261220E+02  0.199275E+02  0.306681E-06 -0.172483E-07
  0.286098E+02  0.485347E+00  0.544117E-06 -0.381709E-08
  0.286098E+02  0.145604E+01  0.483306E-06  0.338043E-07
  0.286098E+02  0.242673E+01  0.962594E-07  0.322743E-07
  0.286098E+02  0.339743E+01  0.188831E-06  0.538387E-07
  0.286098E+02  0.436812E+01  0.241054E-06  0.549759E-07
  0.286098E+02  0.533882E+01  0.356279E-06  0.464573E-07
  0.286098E+02  0.630951E+01  0.246450E-06  0.105076E-07
  0.286098E+02  0.728020E+01  0.178441E-06 -0.719284E-08
  0.286098E+02  0.825090E+01  0.209137E-06 -0.622023E-08
  0.286098E+02  0.922159E+01  0.273940E-06  0.213929E-07
  0.286098E+02  0.101923E+02  0.531250E-06  0.286857E-07
  0.286098E+02  0.111630E+02  0.802351E-09  0.831668E-09
  0.286098E+02  0.121337E+02  0.527016E-10  0.261618E-09
  0.286098E+02  0.131044E+02 -0.194634E-11  0.246877E-09
  0.286098E+02  0.140751E+02  0.124210E-09  0.408584E-09
  0.286098E+02  0.150458E+02  0.382912E-06  0.446254E-07
  0.286098E+02  0.160164E+02  0.246887E-06  0.931719E-07
  0.286098E+02  0.169871E+02  0.394609E-06  0.105534E-06
  0.286098E+02  0.179578E+02  0.655458E-06  0.759598E-07
  0.286098E+02  0.189285E+02  0.294751E-06  0.240121E-07
  0.286098E+02  0.198992E+02  0.338679E-06 -0.151062E-07
  0.310976E+02  0.484953E+00  0.517129E-06  0.480042E-07
  0.310976E+02  0.145486E+01  0.162089E-06  0.100584E-06
  0.310976E+02  0.242477E+01  0.160776E-06  0.907979E-07
  0.310976E+02  0.339467E+01  0.129938E-06  0.424240E-07
  0.310976E+02  0.436458E+01  0.276002E-06  0.414146E-07
  0.310976E+02  0.533448E+01  0.379116E-06  0.621122E-07
  0.310976E+02  0.630439E+01  0.347494E-06  0.416994E-07
  0.310976E+02  0.727430E+01  0.167998E-06  0.118756E-07
  0.310976E+02  0.824420E+01  0.227661E-06 -0.575450E-08
  0.310976E+02  0.921411E+01  0.193763E-06 -0.852279E-08
  0.310976E+02  0.101840E+02  0.627309E-06  0.399862E-08
  0.310976E+02  0.111539E+02  0.176139E-08  0.189950E-08
  0.310976E+02  0.121238E+02  0.122505E-08  0.249712E-08
  0.310976E+02  0.130937E+02  0.228076E-09  0.102412E-08
  0.310976E+02  0.140636E+02  0.197538E-09  0.691958E-09
  0.310976E+02  0.150335E+02  0.202707E-06  0.143063E-07
  0.310976E+02  0.160035E+02  0.310093E-06  0.355363E-07
  0.310976E+02  0.169734E+02  0.385868E-06  0.234119E-07
  0.310976E+02  0.179433E+02  0.548746E-06  0.432971E-07
  0.310976E+02  0.189132E+02  0.405491E-06  0.401750E-07
  0.310976E+02  0.198831E+02  0.328095E-06  0.342847E-08
  0.335854E+02  0.484460E+00  0.118850E-06  0.981929E-08
  0.335854E+02  0.145338E+01  0.918146E-07  0.397487E-07
  0.335854E+02  0.242230E+01  0.145521E-06  0.631028E-07
  0.335854E+02  0.339122E+01  0.253190E-06  0.793387E-07
  0.335854E+02  0.436014E+01  0.223914E-06  0.512123E-07
  0.335854E+02  0.532906E+01  0.284353E-06  0.790703E-07
  0.335854E+02  0.629798E+01  0.545202E-06  0.854762E-07
  0.335854E+02  0.726691E+01  0.225133E-06  0.447391E-07
  0.335854E+02  0.823583E+01  0.446593E-06  0.896176E-08
  0.335854E+02  0.920475E+01  0.217189E-06 -0.322957E-07
  0.335854E+02  0.101737E+02  0.620882E-06 -0.213938E-07
  0.335854E+02  0.111426E+02  0.805286E-08  0.149381E-07
  0.335854E+02  0.121115E+02  0.331544E-08  0.643735E-08
  0.335854E+02  0.130804E+02  0.103199E-08  0.534007E-08
  0.335854E+02  0.140493E+02  0.579598E-09  0.603051E-08
  0.335854E+02  0.150183E+02  0.254688E-06 -0.610838E-08
  0.335854E+02  0.159872E+02  0.236812E-06 -0.644462E-08
  0.335854E+02  0.169561E+02  0.501807E-06 -0.644964E-08
  0.335854E+02  0.179250E+02  0.453331E-06  0.409631E-08
  0.335854E+02  0.188940E+02  0.523250E-06  0.273388E-07
  0.335854E+02  0.198629E+02  0.550908E-06 -0.225937E-08
  0.360732E+02  0.484290E+00  0.780173E-07  0.872482E-08
  0.360732E+02  0.145287E+01  0.552843E-07  0.120248E-07
  0.360732E+02  0.242145E+01  0.554361E-07  0.114488E-07
  0.360732E+02  0.339003E+01  0.166027E-06  0.258686E-07
  0.360732E+02  0.435861E+01  0.285845E-06  0.478080E-07
  0.360732E+02  0.532719E+01  0.285606E-06  0.537769E-07
  0.360732E+02  0.629577E+01  0.475624E-06  0.682554E-07
  0.360732E+02  0.726435E+01  0.356841E-06  0.506872E-07
  0.360732E+02  0.823293E+01  0.453979E-06  0.927618E-08
  0.360732E+02  0.920151E+01  0.342147E-06 -0.185933E-07
  0.360732E+02  0.101701E+02  0.373161E-06 -0.693323E-08
  0.360732E+02  0.111387E+02  0.418354E-08  0.186958E-07
  0.360732E+02  0.121072E+02  0.115684E-07  0.264583E-07
  0.360732E+02  0.130758E+02  0.732036E-08  0.201482E-07
  0.360732E+02  0.140444E+02  0.158436E-08  0.136998E-07
  0.360732E+02  0.150130E+02  0.392743E-06  0.547778E-08
  0.360732E+02  0.159816E+02  0.500470E-06 -0.504926E-07
  0.360732E+02  0.169501E+02  0.587727E-06 -0.799351E-07
  0.360732E+02  0.179187E+02  0.621197E-06 -0.828811E-07
  0.360732E+02  0.188873E+02  0.757963E-06 -0.100363E-06
  0.360732E+02  0.198559E+02  0.598205E-06 -0.532061E-07
  0.385610E+02  0.484105E+00  0.395555E-07  0.182590E-08
  0.385610E+02  0.145231E+01  0.527980E-07  0.745496E-08
  0.385610E+02  0.242052E+01  0.725230E-07  0.647321E-08
  0.385610E+02  0.338873E+01  0.178286E-06  0.426800E-08
  0.385610E+02  0.435694E+01  0.312238E-06  0.528213E-08
  0.385610E+02  0.532515E+01  0.233423E-06  0.126592E-07
  0.385610E+02  0.629336E+01  0.341967E-06  0.587617E-07
  0.385610E+02  0.726157E+01  0.473806E-06  0.627143E-07
  0.385610E+02  0.822978E+01  0.369287E-06  0.614317E-07
  0.385610E+02  0.919799E+01  0.429367E-06  0.412662E-07
  0.385610E+02  0.101662E+02  0.315192E-06  0.167652E-07
  0.385610E+02  0.111344E+02  0.243605E-08  0.182538E-07
  0.385610E+02  0.121026E+02  0.729398E-08  0.134493E-07
  0.385610E+02  0.130708E+02  0.944507E-08  0.167692E-07
  0.385610E+02  0.140390E+02  0.398549E-08  0.141922E-07
  0.385610E+02  0.150072E+02  0.481458E-06  0.180829E-07
  0.385610E+02  0.159755E+02  0.594625E-06  0.490700E-07
  0.385610E+02  0.169437E+02  0.718683E-06  0.108649E-06
  0.385610E+02  0.179119E+02  0.132911E-05 -0.933070E-08
  0.385610E+02  0.188801E+02  0.968766E-06 -0.128266E-06
  0.385610E+02  0.198483E+02  0.586065E-06 -0.776679E-07
  0.410488E+02  0.483953E+00  0.400464E-07 -0.142916E-08
  0.410488E+02  0.145186E+01  0.415602E-07 -0.298185E-08
  0.410488E+02  0.241977E+01  0.102760E-06 -0.455697E-08
  0.410488E+02  0.338767E+01  0.157276E-06 -0.945458E-08
  0.410488E+02  0.435558E+01  0.256911E-06 -0.933491E-08
  0.410488E+02  0.532348E+01  0.140416E-06  0.109754E-07
  0.410488E+02  0.629139E+01  0.156212E-06  0.247818E-07
  0.410488E+02  0.725930E+01  0.449889E-06  0.773453E-07
  0.410488E+02  0.822720E+01  0.285053E-06  0.706195E-07
  0.410488E+02  0.919511E+01  0.609739E-06  0.115482E-06
  0.410488E+02  0.101630E+02  0.415241E-06  0.535411E-07
  0.410488E+02  0.111309E+02  0.640007E-09  0.894410E-08
  0.410488E+02  0.120988E+02  0.518748E-08  0.154663E-07
  0.410488E+02  0.130667E+02  0.361147E-08  0.145222E-07
  0.410488E+02  0.140346E+02  0.590702E-08  0.206380E-07
  0.410488E+02  0.150025E+02  0.481160E-06  0.343617E-07
  0.410488E+02  0.159705E+02  0.567998E-06  0.151385E-07
  0.410488E+02  0.169384E+02  0.808099E-06 -0.317809E-07
  0.410488E+02  0.179063E+02  0.256632E-05 -0.201674E-06
  0.410488E+02  0.188742E+02  0.144276E-05 -0.154249E-06
  0.410488E+02  0.198421E+02  0.469956E-06 -0.523925E-07
  0.435366E+02  0.483826E+00  0.463430E-07 -0.272126E-08
  0.435366E+02  0.145148E+01  0.485271E-07 -0.638750E-08
  0.435366E+02  0.241913E+01  0.693075E-07 -0.696176E-08
  0.435366E+02  0.338678E+01  0.254632E-06 -0.296661E-07
  0.435366E+02  0.435443E+01  0.157176E-06 -0.785416E-08
  0.435366E+02  0.532209E+01  0.133950E-06  0.749700E-08
  0.435366E+02  0.628974E+01  0.143945E-06  0.150200E-07
  0.435366E+02  0.725739E+01  0.311945E-06  0.261384E-07
  0.435366E+02  0.822504E+01  0.430760E-06  0.418590E-07
  0.435366E+02  0.919269E+01  0.304060E-06  0.243495E-07
  0.435366E+02  0.101603E+02  0.758856E-06  0.326215E-07
  0.435366E+02  0.111280E+02 -0.343850E-09  0.493866E-08
  0.435366E+02  0.120956E+02 -0.128224E-08  0.546767E-08
  0.435366E+02  0.130633E+02 -0.780544E-09  0.978846E-08
  0.435366E+02  0.140310E+02  0.344429E-09  0.772793E-08
  0.435366E+02  0.149986E+02  0.327563E-06  0.419620E-07
  0.435366E+02  0.159663E+02  0.104287E-05  0.918438E-07
  0.435366E+02  0.169339E+02  0.189813E-05 -0.107920E-06
  0.435366E+02  0.179016E+02  0.167970E-05 -0.129844E-06
  0.435366E+02  0.188692E+02  0.114635E-05 -0.909454E-07
  0.435366E+02  0.198369E+02  0.436489E-06 -0.349512E-07
  0.460244E+02  0.483687E+00  0.863665E-07 -0.471254E-08
  0.460244E+02  0.145106E+01  0.533792E-07 -0.112394E-07
  0.460244E+02  0.241843E+01  0.208092E-06 -0.403378E-07
  0.460244E+02  0.338581E+01  0.157907E-06 -0.216864E-07
  0.460244E+02  0.435318E+01  0.130741E-06 -0.509901E-08
  0.460244E+02  0.532055E+01  0.132497E-06 -0.316675E-08
  0.460244E+02  0.628793E+01  0.110144E-06 -0.138064E-08
  0.460244E+02  0.725530E+01  0.333424E-06  0.668515E-08
  0.460244E+02  0.822267E+01  0.335988E-06  0.169072E-07
  0.460244E+02  0.919005E+01  0.603877E-06 -0.110834E-07
  0.460244E+02  0.101574E+02  0.481239E-06 -0.165429E-07
  0.460244E+02  0.111248E+02 -0.235780E-09  0.564419E-08
  0.460244E+02  0.120922E+02 -0.144136E-08  0.544623E-08
  0.460244E+02  0.130595E+02 -0.756159E-09  0.439151E-08
  0.460244E+02  0.140269E+02  0.234203E-09  0.577072E-08
  0.460244E+02  0.149943E+02  0.230595E-06  0.372912E-08
  0.460244E+02  0.159617E+02  0.548826E-06  0.495084E-08
  0.460244E+02  0.169290E+02  0.124794E-05  0.912266E-07
  0.460244E+02  0.178964E+02  0.215373E-05  0.174734E-06
  0.460244E+02  0.188638E+02  0.107573E-05  0.588525E-07
  0.460244E+02  0.198312E+02  0.305702E-06 -0.234983E-08
  0.485122E+02  0.483509E+00  0.916486E-07  0.218804E-09
  0.485122E+02  0.145053E+01  0.155241E-06 -0.221999E-07
  0.485122E+02  0.241755E+01  0.195879E-06 -0.219343E-07
  0.485122E+02  0.338456E+01  0.144103E-06 -0.119785E-07
  0.485122E+02  0.435158E+01  0.159102E-06 -0.147749E-07
  0.485122E+02  0.531860E+01  0.140452E-06 -0.148271E-07
  0.485122E+02  0.628562E+01  0.150856E-06 -0.216716E-07
  0.485122E+02  0.725264E+01  0.229187E-06 -0.199350E-07
  0.485122E+02  0.821966E+01  0.404457E-06 -0.242346E-07
  0.485122E+02  0.918668E+01  0.615335E-06 -0.181535E-07
  0.485122E+02  0.101537E+02  0.580368E-06  0.643614E-08
  0.485122E+02  0.111207E+02  0.183391E-09  0.787239E-08
  0.485122E+02  0.120877E+02  0.345392E-09  0.743766E-08
  0.485122E+02  0.130547E+02 -0.132816E-09  0.577726E-08
  0.485122E+02  0.140218E+02 -0.114505E-09  0.715042E-08
  0.485122E+02  0.149888E+02  0.279155E-06 -0.120445E-07
  0.485122E+02  0.159558E+02  0.726092E-06 -0.355984E-07
  0.485122E+02  0.169228E+02  0.994149E-06 -0.629099E-08
  0.485122E+02  0.178898E+02  0.162103E-05  0.114744E-06
  0.485122E+02  0.188569E+02  0.137295E-05  0.213718E-06
  0.485122E+02  0.198239E+02  0.602608E-06  0.680040E-07
  0.510000E+02  0.483353E+00  0.141137E-06 -0.107463E-07
  0.510000E+02  0.145006E+01  0.217255E-06 -0.204293E-07
  0.510000E+02  0.241676E+01  0.178616E-06 -0.159695E-07
  0.510000E+02  0.338347E+01  0.195062E-06 -0.123583E-07
  0.510000E+02  0.435017E+01  0.181471E-06 -0.183016E-07
  0.510000E+02  0.531688E+01  0.172540E-06 -0.377304E-07
  0.510000E+02  0.628359E+01  0.191186E-06 -0.607009E-07
  0.510000E+02  0.725029E+01  0.330587E-06 -0.805767E-07
  0.510000E+02  0.821700E+01  0.468791E-06 -0.769083E-07
  0.510000E+02  0.918370E+01  0.529226E-06 -0.304720E-07
  0.510000E+02  0.101504E+02  0.499237E-06  0.106614E-07
  0.510000E+02  0.111171E+02  0.936024E-09  0.734097E-08
  0.510000E+02  0.120838E+02  0.601265E-09  0.409734E-08
  0.510000E+02  0.130505E+02  0.175579E-08  0.658816E-08
  0.510000E+02  0.140172E+02  0.476272E-09  0.357722E-08
  0.510000E+02  0.149839E+02  0.440862E-06 -0.731846E-08
  0.510000E+02  0.159506E+02  0.539237E-06  0.949336E-08
  0.510000E+02  0.169173E+02  0.112877E-05  0.277096E-07
  0.510000E+02  0.178841E+02  0.119312E-05  0.641342E-07
  0.510000E+02  0.188508E+02  0.132194E-05  0.144944E-06
  0.510000E+02  0.198175E+02  0.119927E-05  0.839989E-07
  0.534878E+02  0.483218E+00  0.193969E-06 -0.655289E-09
  0.534878E+02  0.144965E+01  0.174752E-06 -0.792949E-08
  0.534878E+02  0.241609E+01  0.151610E-06 -0.142731E-07
  0.534878E+02  0.338253E+01  0.182460E-06 -0.226910E-07
  0.534878E+02  0.434896E+01  0.247063E-06 -0.401445E-07
  0.534878E+02  0.531540E+01  0.267256E-06 -0.505741E-07
  0.534878E+02  0.628183E+01  0.227437E-06 -0.637268E-07
  0.534878E+02  0.724827E+01  0.282589E-06 -0.752625E-07
  0.534878E+02  0.821471E+01  0.449322E-06 -0.714874E-07
  0.534878E+02  0.918114E+01  0.261399E-06 -0.327634E-07
  0.534878E+02  0.101476E+02  0.502157E-06 -0.132399E-07
  0.534878E+02  0.111140E+02  0.138857E-08  0.729853E-08
  0.534878E+02  0.120805E+02  0.239758E-08  0.759527E-08
  0.534878E+02  0.130469E+02  0.128882E-08  0.585264E-08
  0.534878E+02  0.140133E+02  0.106756E-08  0.102696E-07
  0.534878E+02  0.149798E+02  0.428471E-06 -0.103199E-07
  0.534878E+02  0.159462E+02  0.687894E-06 -0.989056E-07
  0.534878E+02  0.169126E+02  0.951770E-06 -0.156954E-06
  0.534878E+02  0.178791E+02  0.769012E-06 -0.489440E-07
  0.534878E+02  0.188455E+02  0.103787E-05  0.570608E-08
  0.534878E+02  0.198119E+02  0.141781E-05 -0.129687E-07
  0.559756E+02  0.483134E+00  0.123699E-06  0.340943E-08
  0.559756E+02  0.144940E+01  0.231410E-06  0.809288E-08
  0.559756E+02  0.241567E+01  0.152278E-06 -0.493743E-08
  0.559756E+02  0.338194E+01  0.218484E-06 -0.160404E-07
  0.559756E+02  0.434821E+01  0.169971E-06 -0.150948E-07
  0.559756E+02  0.531447E+01  0.222989E-06 -0.220331E-07
  0.559756E+02  0.628074E+01  0.283370E-06 -0.412819E-07
  0.559756E+02  0.724701E+01  0.334486E-06 -0.686305E-07
  0.559756E+02  0.821328E+01  0.260212E-06 -0.532177E-07
  0.559756E+02  0.917954E+01  0.276084E-06 -0.284577E-07
  0.559756E+02  0.101458E+02  0.308228E-06 -0.201010E-08
  0.559756E+02  0.111121E+02  0.294856E-09  0.265778E-08
  0.559756E+02  0.120783E+02  0.236912E-08  0.652817E-08
  0.559756E+02  0.130446E+02  0.216369E-08  0.794172E-08
  0.559756E+02  0.140109E+02  0.204100E-09  0.512410E-08
  0.559756E+02  0.149772E+02  0.679820E-06 -0.533051E-07
  0.559756E+02  0.159434E+02  0.899062E-06 -0.960037E-07
  0.559756E+02  0.169097E+02  0.535854E-06 -0.236559E-07
  0.559756E+02  0.178760E+02  0.584408E-06 -0.482606E-07
  0.559756E+02  0.188422E+02  0.102249E-05 -0.116574E-06
  0.559756E+02  0.198085E+02  0.103754E-05 -0.762307E-07
  0.584634E+02  0.483006E+00  0.131909E-06 -0.137124E-07
  0.584634E+02  0.144902E+01  0.204971E-06 -0.313260E-07
  0.584634E+02  0.241503E+01  0.182316E-06 -0.903062E-08
  0.584634E+02  0.338104E+01  0.195324E-06  0.838395E-08
  0.584634E+02  0.434705E+01  0.225066E-06  0.184497E-07
  0.584634E+02  0.531306E+01  0.274141E-06  0.118513E-07
  0.584634E+02  0.627908E+01  0.301152E-06 -0.874015E-08
  0.584634E+02  0.724509E+01  0.325394E-06 -0.255238E-07
  0.584634E+02  0.821110E+01  0.201894E-06 -0.264658E-07
  0.584634E+02  0.917711E+01  0.131813E-06 -0.159256E-07
  0.584634E+02  0.101431E+02  0.307071E-06 -0.100799E-07
  0.584634E+02  0.111091E+02  0.783721E-10  0.202277E-08
  0.584634E+02  0.120751E+02  0.201764E-09  0.187655E-08
  0.584634E+02  0.130412E+02  0.206156E-08  0.437896E-08
  0.584634E+02  0.140072E+02  0.797217E-09  0.466331E-08
  0.584634E+02  0.149732E+02  0.640606E-06  0.345053E-07
  0.584634E+02  0.159392E+02  0.554824E-06  0.696737E-07
  0.584634E+02  0.169052E+02  0.550024E-06  0.732015E-07
  0.584634E+02  0.178712E+02  0.870374E-06  0.447092E-07
  0.584634E+02  0.188372E+02  0.100703E-05  0.472960E-07
  0.584634E+02  0.198032E+02  0.833379E-06  0.222860E-07
  0.609512E+02  0.482815E+00  0.273270E-06 -0.147338E-07
  0.609512E+02  0.144845E+01  0.141010E-06 -0.148407E-07
  0.609512E+02  0.241408E+01  0.109569E-06 -0.837645E-08
  0.609512E+02  0.337971E+01  0.139867E-06  0.361972E-08
  0.609512E+02  0.434534E+01  0.137617E-06  0.146038E-07
  0.609512E+02  0.531097E+01  0.265982E-06  0.214236E-07
  0.609512E+02  0.627660E+01  0.380967E-06  0.134214E-07
  0.609512E+02  0.724223E+01  0.324134E-06  0.522169E-09
  0.609512E+02  0.820786E+01  0.171369E-06 -0.315389E-08
  0.609512E+02  0.917349E+01  0.186767E-06 -0.127560E-07
  0.609512E+02  0.101391E+02  0.190234E-06 -0.621651E-08
  0.609512E+02  0.111047E+02  0.384272E-09  0.421240E-08
  0.609512E+02  0.120704E+02  0.673052E-09  0.411642E-08
  0.609512E+02  0.130360E+02  0.633242E-09  0.314229E-08
  0.609512E+02  0.140016E+02  0.107948E-08  0.376524E-08
  0.609512E+02  0.149673E+02  0.478572E-06  0.301822E-08
  0.609512E+02  0.159329E+02  0.536008E-06  0.309602E-07
  0.609512E+02  0.168985E+02  0.461949E-06  0.837120E-07
  0.609512E+02  0.178642E+02  0.917702E-06  0.929600E-07
  0.609512E+02  0.188298E+02  0.941494E-06  0.405472E-07