title="2d vectors xy, t=    0.150E+03"
variables="x","y","vx","vy"
zone i=    41, j=    41, T="   0.150E+03"
  0.124390E+01  0.124390E+01  0.598508E-06  0.835424E-08
  0.124390E+01  0.373171E+01  0.309405E-06  0.214267E-08
  0.124390E+01  0.621951E+01  0.159513E-06 -0.121023E-07
  0.124390E+01  0.870732E+01  0.303834E-06 -0.278291E-07
  0.124390E+01  0.111951E+02  0.211483E-06 -0.873469E-08
  0.124390E+01  0.136829E+02  0.770220E-06 -0.138058E-08
  0.124390E+01  0.161707E+02  0.106362E-05 -0.901110E-09
  0.124390E+01  0.186585E+02  0.642197E-06 -0.547687E-08
  0.124390E+01  0.211463E+02  0.325489E-06  0.158740E-07
  0.124390E+01  0.236341E+02  0.295135E-06  0.997591E-08
  0.124390E+01  0.261220E+02  0.233755E-06 -0.481790E-08
  0.124390E+01  0.286098E+02  0.170939E-06 -0.151170E-07
  0.124390E+01  0.310976E+02  0.168783E-06 -0.166350E-07
  0.124390E+01  0.335854E+02  0.154860E-06 -0.141836E-07
  0.124390E+01  0.360732E+02  0.225850E-06 -0.274211E-07
  0.124390E+01  0.385610E+02  0.626626E-06  0.700556E-09
  0.124390E+01  0.410488E+02  0.115806E-05  0.130579E-06
  0.124390E+01  0.435366E+02  0.880382E-06  0.144225E-06
  0.124390E+01  0.460244E+02  0.199440E-06  0.499302E-07
  0.124390E+01  0.485122E+02  0.207543E-06  0.123789E-07
  0.124390E+01  0.510000E+02  0.335173E-06 -0.160328E-07
  0.124390E+01  0.534878E+02  0.756534E-06 -0.235716E-07
  0.124390E+01  0.559756E+02  0.241037E-06 -0.333618E-08
  0.124390E+01  0.584634E+02  0.434856E-06  0.307844E-08
  0.124390E+01  0.609512E+02  0.249464E-06 -0.106110E-07
  0.124390E+01  0.634390E+02  0.371072E-06 -0.458291E-07
  0.124390E+01  0.659268E+02  0.310748E-06 -0.263830E-07
  0.124390E+01  0.684146E+02  0.175100E-06 -0.140340E-07
  0.124390E+01  0.709024E+02  0.175615E-06  0.871575E-09
  0.124390E+01  0.733902E+02  0.231183E-06  0.361616E-08
  0.124390E+01  0.758780E+02  0.210058E-06 -0.187372E-07
  0.124390E+01  0.783659E+02  0.238306E-06 -0.250625E-07
  0.124390E+01  0.808537E+02  0.751538E-07 -0.404298E-08
  0.124390E+01  0.833415E+02  0.994141E-07 -0.307323E-08
  0.124390E+01  0.858293E+02  0.275247E-06 -0.325964E-07
  0.124390E+01  0.883171E+02  0.710161E-06 -0.548758E-07
  0.124390E+01  0.908049E+02  0.613318E-06 -0.305350E-07
  0.124390E+01  0.932927E+02  0.330730E-06 -0.191237E-07
  0.124390E+01  0.957805E+02  0.178904E-06  0.136243E-07
  0.124390E+01  0.982683E+02  0.678201E-07  0.792198E-08
  0.124390E+01  0.100756E+03  0.398933E-07  0.245758E-07
  0.373171E+01  0.124390E+01  0.693969E-06  0.167513E-07
  0.373171E+01  0.373171E+01  0.574797E-06  0.419342E-07
  0.373171E+01  0.621951E+01  0.371668E-06 -0.291522E-07
  0.373171E+01  0.870732E+01  0.289666E-06 -0.492897E-07
  0.373171E+01  0.111951E+02  0.391983E-06 -0.607039E-07
  0.373171E+01  0.136829E+02  0.120550E-05 -0.119765E-06
  0.373171E+01  0.161707E+02  0.131001E-05 -0.270264E-07
  0.373171E+01  0.186585E+02  0.477881E-06  0.508839E-07
  0.373171E+01  0.211463E+02  0.216920E-06  0.338851E-07
  0.373171E+01  0.236341E+02  0.259213E-06  0.195302E-07
  0.373171E+01  0.261220E+02  0.239001E-06 -0.820198E-08
  0.373171E+01  0.286098E+02  0.179002E-06 -0.279225E-07
  0.373171E+01  0.310976E+02  0.236525E-06 -0.340815E-07
  0.373171E+01  0.335854E+02  0.227880E-06 -0.319133E-07
  0.373171E+01  0.360732E+02  0.215388E-06 -0.357371E-07
  0.373171E+01  0.385610E+02  0.280130E-06 -0.131898E-07
  0.373171E+01  0.410488E+02  0.709830E-06  0.107138E-06
  0.373171E+01  0.435366E+02  0.464674E-06  0.135368E-06
  0.373171E+01  0.460244E+02  0.209714E-06  0.930143E-07
  0.373171E+01  0.485122E+02  0.214894E-06  0.353938E-07
  0.373171E+01  0.510000E+02  0.237958E-06 -0.287222E-07
  0.373171E+01  0.534878E+02  0.887940E-06 -0.952871E-07
  0.373171E+01  0.559756E+02  0.325408E-06 -0.270075E-07
  0.373171E+01  0.584634E+02  0.321034E-06 -0.550440E-08
  0.373171E+01  0.609512E+02  0.442956E-06 -0.774607E-07
  0.373171E+01  0.634390E+02  0.227816E-06 -0.824892E-07
  0.373171E+01  0.659268E+02  0.158144E-06 -0.432989E-07
  0.373171E+01  0.684146E+02  0.124858E-06 -0.270275E-07
  0.373171E+01  0.709024E+02  0.593602E-07 -0.491801E-08
  0.373171E+01  0.733902E+02  0.250589E-06 -0.210762E-07
  0.373171E+01  0.758780E+02  0.282613E-06 -0.770837E-07
  0.373171E+01  0.783659E+02  0.201073E-06 -0.354242E-07
  0.373171E+01  0.808537E+02  0.448958E-07 -0.595222E-08
  0.373171E+01  0.833415E+02  0.148184E-06 -0.356023E-07
  0.373171E+01  0.858293E+02  0.391720E-06 -0.113653E-06
  0.373171E+01  0.883171E+02  0.371240E-06 -0.640505E-07
  0.373171E+01  0.908049E+02  0.611271E-06 -0.469927E-07
  0.373171E+01  0.932927E+02  0.182788E-06 -0.562830E-08
  0.373171E+01  0.957805E+02  0.111965E-06  0.821692E-08
  0.373171E+01  0.982683E+02  0.708418E-07  0.155721E-07
  0.373171E+01  0.100756E+03  0.563808E-07  0.254259E-08
  0.621951E+01  0.124390E+01  0.911345E-06  0.123493E-06
  0.621951E+01  0.373171E+01  0.608289E-06  0.944563E-07
  0.621951E+01  0.621951E+01  0.772751E-06  0.236173E-07
  0.621951E+01  0.870732E+01  0.399486E-06 -0.659524E-07
  0.621951E+01  0.111951E+02  0.696003E-06 -0.172434E-06
  0.621951E+01  0.136829E+02  0.999022E-06 -0.159597E-06
  0.621951E+01  0.161707E+02  0.871068E-06 -0.414451E-07
  0.621951E+01  0.186585E+02  0.324395E-06  0.404647E-07
  0.621951E+01  0.211463E+02  0.141043E-06  0.462784E-07
  0.621951E+01  0.236341E+02  0.225303E-06  0.426091E-07
  0.621951E+01  0.261220E+02  0.312280E-06 -0.131848E-08
  0.621951E+01  0.286098E+02  0.252466E-06 -0.402385E-07
  0.621951E+01  0.310976E+02  0.203322E-06 -0.563842E-07
  0.621951E+01  0.335854E+02  0.302490E-06 -0.727981E-07
  0.621951E+01  0.360732E+02  0.191419E-06 -0.535139E-07
  0.621951E+01  0.385610E+02  0.310986E-06 -0.209874E-08
  0.621951E+01  0.410488E+02  0.454210E-06  0.865288E-07
  0.621951E+01  0.435366E+02  0.570980E-06  0.142318E-06
  0.621951E+01  0.460244E+02  0.425723E-06  0.988358E-07
  0.621951E+01  0.485122E+02  0.437020E-06  0.192114E-07
  0.621951E+01  0.510000E+02  0.473999E-06 -0.351196E-07
  0.621951E+01  0.534878E+02  0.939744E-06 -0.111380E-06
  0.621951E+01  0.559756E+02  0.315397E-06 -0.110770E-06
  0.621951E+01  0.584634E+02  0.360082E-06 -0.114474E-06
  0.621951E+01  0.609512E+02  0.142877E-06 -0.452506E-07
  0.621951E+01  0.634390E+02  0.100087E-06 -0.398010E-07
  0.621951E+01  0.659268E+02  0.109168E-06 -0.451300E-07
  0.621951E+01  0.684146E+02  0.914624E-07 -0.359966E-07
  0.621951E+01  0.709024E+02  0.922349E-07 -0.359534E-07
  0.621951E+01  0.733902E+02  0.297377E-06 -0.591264E-07
  0.621951E+01  0.758780E+02  0.155266E-06 -0.156688E-07
  0.621951E+01  0.783659E+02  0.205914E-06 -0.116257E-07
  0.621951E+01  0.808537E+02  0.938693E-07 -0.159028E-07
  0.621951E+01  0.833415E+02  0.234583E-06 -0.868041E-07
  0.621951E+01  0.858293E+02  0.202216E-06 -0.784296E-07
  0.621951E+01  0.883171E+02  0.269760E-06 -0.454774E-07
  0.621951E+01  0.908049E+02  0.174827E-06 -0.174112E-08
  0.621951E+01  0.932927E+02  0.108063E-06  0.500342E-08
  0.621951E+01  0.957805E+02  0.501392E-07  0.446342E-08
  0.621951E+01  0.982683E+02  0.825228E-07  0.101161E-07
  0.621951E+01  0.100756E+03  0.770857E-07  0.406344E-08
  0.870732E+01  0.124390E+01  0.550443E-06  0.625564E-07
  0.870732E+01  0.373171E+01  0.954394E-06  0.148575E-06
  0.870732E+01  0.621951E+01  0.784322E-06  0.645726E-07
  0.870732E+01  0.870732E+01  0.457115E-06 -0.181569E-07
  0.870732E+01  0.111951E+02  0.654221E-06 -0.127535E-06
  0.870732E+01  0.136829E+02  0.679684E-06 -0.119626E-06
  0.870732E+01  0.161707E+02  0.513609E-06  0.958656E-08
  0.870732E+01  0.186585E+02  0.163395E-06  0.150136E-07
  0.870732E+01  0.211463E+02  0.105260E-06  0.215723E-08
  0.870732E+01  0.236341E+02  0.291073E-06  0.148710E-07
  0.870732E+01  0.261220E+02  0.493025E-06  0.606299E-08
  0.870732E+01  0.286098E+02  0.418453E-06 -0.575773E-07
  0.870732E+01  0.310976E+02  0.216658E-06 -0.918398E-07
  0.870732E+01  0.335854E+02  0.282146E-06 -0.116251E-06
  0.870732E+01  0.360732E+02  0.160710E-06 -0.287637E-07
  0.870732E+01  0.385610E+02  0.275327E-06  0.116436E-07
  0.870732E+01  0.410488E+02  0.306716E-06  0.581913E-07
  0.870732E+01  0.435366E+02  0.712738E-06  0.855572E-07
  0.870732E+01  0.460244E+02  0.751176E-06  0.467003E-07
  0.870732E+01  0.485122E+02  0.840650E-06 -0.311518E-08
  0.870732E+01  0.510000E+02  0.275601E-06 -0.177268E-07
  0.870732E+01  0.534878E+02  0.114305E-05 -0.124661E-06
  0.870732E+01  0.559756E+02  0.515562E-06 -0.227312E-06
  0.870732E+01  0.584634E+02  0.280739E-06 -0.130483E-06
  0.870732E+01  0.609512E+02  0.104660E-06 -0.255835E-07
  0.870732E+01  0.634390E+02  0.112507E-06 -0.222109E-07
  0.870732E+01  0.659268E+02  0.120777E-06 -0.476928E-07
  0.870732E+01  0.684146E+02  0.111474E-06 -0.664614E-07
  0.870732E+01  0.709024E+02  0.162851E-06 -0.907208E-07
  0.870732E+01  0.733902E+02  0.248104E-06 -0.439920E-07
  0.870732E+01  0.758780E+02  0.330873E-06 -0.114017E-08
  0.870732E+01  0.783659E+02  0.188145E-06  0.282406E-07
  0.870732E+01  0.808537E+02  0.188332E-06 -0.123293E-07
  0.870732E+01  0.833415E+02  0.287606E-06 -0.830448E-07
  0.870732E+01  0.858293E+02  0.192722E-06 -0.743057E-07
  0.870732E+01  0.883171E+02  0.133933E-06 -0.261609E-07
  0.870732E+01  0.908049E+02  0.721268E-07 -0.440593E-09
  0.870732E+01  0.932927E+02  0.728996E-07  0.594757E-08
  0.870732E+01  0.957805E+02  0.524054E-07  0.942754E-08
  0.870732E+01  0.982683E+02  0.852090E-07  0.128393E-07
  0.870732E+01  0.100756E+03  0.790132E-07  0.583361E-08
  0.111951E+02  0.124390E+01  0.339998E-06  0.279223E-07
  0.111951E+02  0.373171E+01  0.290581E-06  0.483289E-07
  0.111951E+02  0.621951E+01  0.432386E-06  0.899885E-07
  0.111951E+02  0.870732E+01  0.375839E-06  0.283368E-07
  0.111951E+02  0.111951E+02  0.456547E-06 -0.386681E-07
  0.111951E+02  0.136829E+02  0.319238E-06 -0.297338E-07
  0.111951E+02  0.161707E+02  0.254130E-06  0.536955E-08
  0.111951E+02  0.186585E+02  0.312916E-06  0.174430E-07
  0.111951E+02  0.211463E+02  0.160734E-06 -0.503064E-07
  0.111951E+02  0.236341E+02  0.221921E-06 -0.722174E-07
  0.111951E+02  0.261220E+02  0.361364E-06 -0.538109E-07
  0.111951E+02  0.286098E+02  0.469021E-06 -0.100944E-06
  0.111951E+02  0.310976E+02  0.447568E-06 -0.162956E-06
  0.111951E+02  0.335854E+02  0.136581E-06 -0.486208E-07
  0.111951E+02  0.360732E+02  0.963889E-07 -0.128431E-07
  0.111951E+02  0.385610E+02  0.191321E-06  0.339660E-08
  0.111951E+02  0.410488E+02  0.250914E-06 -0.154199E-07
  0.111951E+02  0.435366E+02  0.927582E-06 -0.515000E-07
  0.111951E+02  0.460244E+02  0.681292E-06  0.367025E-07
  0.111951E+02  0.485122E+02  0.853681E-06  0.104518E-06
  0.111951E+02  0.510000E+02  0.695436E-06 -0.470971E-07
  0.111951E+02  0.534878E+02  0.153432E-05 -0.293762E-06
  0.111951E+02  0.559756E+02  0.519740E-06 -0.137287E-06
  0.111951E+02  0.584634E+02  0.268995E-06 -0.642267E-07
  0.111951E+02  0.609512E+02  0.154816E-06 -0.372958E-07
  0.111951E+02  0.634390E+02  0.147631E-06 -0.229147E-07
  0.111951E+02  0.659268E+02  0.111014E-06 -0.257009E-07
  0.111951E+02  0.684146E+02  0.120543E-06 -0.428183E-07
  0.111951E+02  0.709024E+02  0.136751E-06 -0.348330E-07
  0.111951E+02  0.733902E+02  0.188651E-06 -0.239648E-07
  0.111951E+02  0.758780E+02  0.422146E-06  0.284084E-07
  0.111951E+02  0.783659E+02  0.240410E-06  0.237724E-07
  0.111951E+02  0.808537E+02  0.650598E-06 -0.182958E-07
  0.111951E+02  0.833415E+02  0.334464E-06 -0.520462E-07
  0.111951E+02  0.858293E+02  0.252194E-06 -0.698353E-07
  0.111951E+02  0.883171E+02  0.124514E-06 -0.181441E-07
  0.111951E+02  0.908049E+02  0.174465E-06  0.475902E-09
  0.111951E+02  0.932927E+02  0.802439E-07  0.624112E-08
  0.111951E+02  0.957805E+02  0.103163E-06  0.126316E-07
  0.111951E+02  0.982683E+02  0.904349E-07  0.104843E-07
  0.111951E+02  0.100756E+03  0.171296E-06  0.102500E-07
  0.136829E+02  0.124390E+01  0.191598E-06  0.318836E-07
  0.136829E+02  0.373171E+01  0.293369E-06  0.655662E-07
  0.136829E+02  0.621951E+01  0.409914E-06  0.920433E-07
  0.136829E+02  0.870732E+01  0.912179E-06  0.709426E-07
  0.136829E+02  0.111951E+02  0.494650E-06 -0.450993E-07
  0.136829E+02  0.136829E+02  0.374777E-06 -0.330211E-07
  0.136829E+02  0.161707E+02  0.478326E-06 -0.504584E-07
  0.136829E+02  0.186585E+02  0.398042E-06 -0.622165E-07
  0.136829E+02  0.211463E+02  0.220906E-06 -0.540472E-07
  0.136829E+02  0.236341E+02  0.872889E-07 -0.335277E-07
  0.136829E+02  0.261220E+02  0.240923E-06 -0.719216E-07
  0.136829E+02  0.286098E+02  0.503539E-06 -0.104538E-06
  0.136829E+02  0.310976E+02  0.370521E-06 -0.518605E-07
  0.136829E+02  0.335854E+02  0.107990E-06 -0.137039E-07
  0.136829E+02  0.360732E+02  0.122543E-06 -0.771002E-08
  0.136829E+02  0.385610E+02  0.774624E-07 -0.241365E-08
  0.136829E+02  0.410488E+02  0.376849E-06 -0.163307E-07
  0.136829E+02  0.435366E+02  0.659078E-06 -0.327037E-07
  0.136829E+02  0.460244E+02  0.560729E-06 -0.394157E-07
  0.136829E+02  0.485122E+02  0.649481E-06 -0.225731E-07
  0.136829E+02  0.510000E+02  0.937941E-06 -0.830556E-07
  0.136829E+02  0.534878E+02  0.131429E-05 -0.477917E-07
  0.136829E+02  0.559756E+02  0.626375E-06  0.318981E-07
  0.136829E+02  0.584634E+02  0.471223E-06 -0.270057E-07
  0.136829E+02  0.609512E+02  0.152168E-06 -0.272919E-07
  0.136829E+02  0.634390E+02  0.156385E-06 -0.293121E-07
  0.136829E+02  0.659268E+02  0.161752E-06 -0.274960E-07
  0.136829E+02  0.684146E+02  0.133659E-06 -0.180827E-07
  0.136829E+02  0.709024E+02  0.202413E-06 -0.211603E-07
  0.136829E+02  0.733902E+02  0.258442E-06 -0.141084E-07
  0.136829E+02  0.758780E+02  0.317908E-06 -0.316386E-09
  0.136829E+02  0.783659E+02  0.667315E-06 -0.266132E-07
  0.136829E+02  0.808537E+02  0.894616E-06 -0.816397E-07
  0.136829E+02  0.833415E+02  0.757488E-06 -0.356197E-07
  0.136829E+02  0.858293E+02  0.298924E-06  0.101657E-08
  0.136829E+02  0.883171E+02  0.225640E-06 -0.120107E-07
  0.136829E+02  0.908049E+02  0.183627E-06 -0.740945E-08
  0.136829E+02  0.932927E+02  0.233247E-06  0.125480E-07
  0.136829E+02  0.957805E+02  0.236918E-06  0.216842E-07
  0.136829E+02  0.982683E+02  0.261479E-06  0.242860E-07
  0.136829E+02  0.100756E+03  0.294690E-06  0.187884E-07
  0.161707E+02  0.124390E+01  0.165227E-06  0.248323E-07
  0.161707E+02  0.373171E+01  0.374677E-06  0.967241E-07
  0.161707E+02  0.621951E+01  0.465284E-06  0.415630E-07
  0.161707E+02  0.870732E+01  0.884908E-06 -0.503687E-07
  0.161707E+02  0.111951E+02  0.399468E-06 -0.135479E-07
  0.161707E+02  0.136829E+02  0.369343E-06 -0.852216E-08
  0.161707E+02  0.161707E+02  0.417084E-06 -0.648725E-08
  0.161707E+02  0.186585E+02  0.358867E-06  0.231788E-07
  0.161707E+02  0.211463E+02  0.246410E-06  0.792775E-08
  0.161707E+02  0.236341E+02  0.167495E-06 -0.192693E-07
  0.161707E+02  0.261220E+02  0.162353E-06 -0.303188E-07
  0.161707E+02  0.286098E+02  0.332287E-06 -0.507022E-07
  0.161707E+02  0.310976E+02  0.201015E-06 -0.175639E-07
  0.161707E+02  0.335854E+02  0.116506E-06 -0.220574E-08
  0.161707E+02  0.360732E+02  0.671671E-07  0.338753E-08
  0.161707E+02  0.385610E+02  0.212959E-06 -0.999615E-08
  0.161707E+02  0.410488E+02  0.295456E-06 -0.326452E-07
  0.161707E+02  0.435366E+02  0.832273E-06 -0.920589E-07
  0.161707E+02  0.460244E+02  0.477826E-06 -0.747280E-07
  0.161707E+02  0.485122E+02  0.745186E-06 -0.654406E-07
  0.161707E+02  0.510000E+02  0.139204E-05 -0.288920E-07
  0.161707E+02  0.534878E+02  0.702100E-06  0.211998E-07
  0.161707E+02  0.559756E+02  0.744187E-06  0.682488E-07
  0.161707E+02  0.584634E+02  0.462330E-06  0.155836E-07
  0.161707E+02  0.609512E+02  0.187711E-06 -0.458261E-08
  0.161707E+02  0.634390E+02  0.190561E-06 -0.748641E-08
  0.161707E+02  0.659268E+02  0.183564E-06 -0.142198E-07
  0.161707E+02  0.684146E+02  0.183727E-06 -0.250286E-07
  0.161707E+02  0.709024E+02  0.289493E-06 -0.300260E-07
  0.161707E+02  0.733902E+02  0.310681E-06 -0.475270E-07
  0.161707E+02  0.758780E+02  0.499705E-06 -0.570856E-07
  0.161707E+02  0.783659E+02  0.816831E-06 -0.109037E-06
  0.161707E+02  0.808537E+02  0.135140E-05 -0.216956E-06
  0.161707E+02  0.833415E+02  0.798289E-06  0.276378E-07
  0.161707E+02  0.858293E+02  0.466533E-06  0.100975E-06
  0.161707E+02  0.883171E+02  0.281435E-06  0.155715E-07
  0.161707E+02  0.908049E+02  0.232442E-06 -0.906139E-08
  0.161707E+02  0.932927E+02  0.258115E-06  0.796808E-09
  0.161707E+02  0.957805E+02  0.559583E-06  0.171251E-07
  0.161707E+02  0.982683E+02  0.618285E-06  0.666853E-07
  0.161707E+02  0.100756E+03  0.592870E-06  0.536742E-07
  0.186585E+02  0.124390E+01  0.199637E-06 -0.392030E-08
  0.186585E+02  0.373171E+01  0.365928E-06 -0.112816E-07
  0.186585E+02  0.621951E+01  0.138086E-05 -0.674661E-07
  0.186585E+02  0.870732E+01  0.824150E-06  0.546203E-07
  0.186585E+02  0.111951E+02  0.485175E-06  0.951147E-07
  0.186585E+02  0.136829E+02  0.388208E-06  0.683248E-07
  0.186585E+02  0.161707E+02  0.285480E-06  0.618608E-07
  0.186585E+02  0.186585E+02  0.314839E-06  0.908505E-07
  0.186585E+02  0.211463E+02  0.332133E-06  0.462398E-07
  0.186585E+02  0.236341E+02  0.183912E-06  0.817992E-08
  0.186585E+02  0.261220E+02  0.278829E-06 -0.133561E-07
  0.186585E+02  0.286098E+02  0.199167E-06 -0.703914E-08
  0.186585E+02  0.310976E+02  0.179475E-06 -0.373804E-08
  0.186585E+02  0.335854E+02  0.142852E-06 -0.543228E-08
  0.186585E+02  0.360732E+02  0.123202E-06 -0.987565E-08
  0.186585E+02  0.385610E+02  0.241691E-06 -0.475128E-07
  0.186585E+02  0.410488E+02  0.683494E-06 -0.194109E-06
  0.186585E+02  0.435366E+02  0.787334E-06 -0.107327E-06
  0.186585E+02  0.460244E+02  0.524116E-06  0.816728E-08
  0.186585E+02  0.485122E+02  0.665933E-06  0.391715E-08
  0.186585E+02  0.510000E+02  0.134420E-05  0.433396E-07
  0.186585E+02  0.534878E+02  0.506460E-06  0.185056E-07
  0.186585E+02  0.559756E+02  0.423776E-06 -0.113193E-09
  0.186585E+02  0.584634E+02  0.255310E-06  0.166272E-07
  0.186585E+02  0.609512E+02  0.118430E-06  0.247825E-08
  0.186585E+02  0.634390E+02  0.628341E-07 -0.453372E-08
  0.186585E+02  0.659268E+02  0.263665E-06 -0.132643E-07
  0.186585E+02  0.684146E+02  0.196689E-06 -0.377259E-07
  0.186585E+02  0.709024E+02  0.323107E-06 -0.100326E-06
  0.186585E+02  0.733902E+02  0.541080E-06 -0.238706E-06
  0.186585E+02  0.758780E+02  0.459360E-06 -0.173948E-06
  0.186585E+02  0.783659E+02  0.161415E-05 -0.376815E-06
  0.186585E+02  0.808537E+02  0.107301E-05 -0.107776E-06
  0.186585E+02  0.833415E+02  0.653833E-06  0.101915E-06
  0.186585E+02  0.858293E+02  0.345600E-06  0.663683E-07
  0.186585E+02  0.883171E+02  0.275620E-06  0.325360E-07
  0.186585E+02  0.908049E+02  0.262698E-06  0.244179E-07
  0.186585E+02  0.932927E+02  0.317224E-06  0.193832E-07
  0.186585E+02  0.957805E+02  0.610068E-06 -0.162297E-09
  0.186585E+02  0.982683E+02  0.740008E-06  0.822779E-09
  0.186585E+02  0.100756E+03  0.925694E-06  0.208126E-07
  0.211463E+02  0.124390E+01  0.254766E-06 -0.341742E-07
  0.211463E+02  0.373171E+01  0.727340E-06 -0.187292E-06
  0.211463E+02  0.621951E+01  0.131459E-05 -0.193691E-06
  0.211463E+02  0.870732E+01  0.534076E-06  0.659083E-07
  0.211463E+02  0.111951E+02  0.471090E-06  0.163079E-06
  0.211463E+02  0.136829E+02  0.242669E-06  0.103245E-06
  0.211463E+02  0.161707E+02  0.294489E-06  0.141207E-06
  0.211463E+02  0.186585E+02  0.241345E-06  0.883386E-07
  0.211463E+02  0.211463E+02  0.450709E-06  0.663219E-07
  0.211463E+02  0.236341E+02  0.139102E-06  0.269288E-07
  0.211463E+02  0.261220E+02  0.203786E-06  0.430507E-07
  0.211463E+02  0.286098E+02  0.181756E-06  0.483285E-07
  0.211463E+02  0.310976E+02  0.298276E-06  0.197443E-07
  0.211463E+02  0.335854E+02  0.738643E-07 -0.859263E-08
  0.211463E+02  0.360732E+02  0.190569E-06 -0.426171E-07
  0.211463E+02  0.385610E+02  0.213275E-06 -0.917438E-07
  0.211463E+02  0.410488E+02  0.569568E-06 -0.104132E-06
  0.211463E+02  0.435366E+02  0.385177E-06  0.346559E-07
  0.211463E+02  0.460244E+02  0.414629E-06  0.548290E-07
  0.211463E+02  0.485122E+02  0.796660E-06  0.505286E-07
  0.211463E+02  0.510000E+02  0.103688E-05  0.603123E-07
  0.211463E+02  0.534878E+02  0.690422E-06  0.398608E-07
  0.211463E+02  0.559756E+02  0.227838E-06 -0.837605E-08
  0.211463E+02  0.584634E+02  0.923944E-07  0.646222E-10
  0.211463E+02  0.609512E+02  0.179541E-06 -0.284462E-08
  0.211463E+02  0.634390E+02  0.102472E-06 -0.280533E-07
  0.211463E+02  0.659268E+02  0.281646E-06 -0.647388E-07
  0.211463E+02  0.684146E+02  0.412540E-06 -0.144509E-06
  0.211463E+02  0.709024E+02  0.429381E-06 -0.234187E-06
  0.211463E+02  0.733902E+02  0.420139E-06 -0.195603E-06
  0.211463E+02  0.758780E+02  0.693807E-06 -0.175405E-06
  0.211463E+02  0.783659E+02  0.902689E-06 -0.809685E-08
  0.211463E+02  0.808537E+02  0.848911E-06  0.365393E-07
  0.211463E+02  0.833415E+02  0.368368E-06  0.300906E-07
  0.211463E+02  0.858293E+02  0.497367E-06  0.368350E-07
  0.211463E+02  0.883171E+02  0.281116E-06  0.417479E-08
  0.211463E+02  0.908049E+02  0.289774E-06  0.297760E-07
  0.211463E+02  0.932927E+02  0.326006E-06  0.542569E-07
  0.211463E+02  0.957805E+02  0.715980E-06  0.177652E-07
  0.211463E+02  0.982683E+02  0.645349E-06 -0.862596E-07
  0.211463E+02  0.100756E+03  0.956860E-06 -0.839790E-07
  0.236341E+02  0.124390E+01  0.501576E-06 -0.139372E-06
  0.236341E+02  0.373171E+01  0.760258E-06 -0.267542E-06
  0.236341E+02  0.621951E+01  0.663541E-06 -0.844339E-07
  0.236341E+02  0.870732E+01  0.214661E-06  0.328784E-07
  0.236341E+02  0.111951E+02  0.225936E-06  0.569735E-07
  0.236341E+02  0.136829E+02  0.325577E-06  0.158840E-06
  0.236341E+02  0.161707E+02  0.154395E-06  0.125201E-06
  0.236341E+02  0.186585E+02  0.405843E-06  0.152312E-06
  0.236341E+02  0.211463E+02  0.326979E-06  0.582994E-07
  0.236341E+02  0.236341E+02  0.111872E-06  0.317577E-07
  0.236341E+02  0.261220E+02  0.194040E-06  0.397289E-07
  0.236341E+02  0.286098E+02  0.226763E-06  0.532710E-07
  0.236341E+02  0.310976E+02  0.266914E-06  0.581631E-07
  0.236341E+02  0.335854E+02  0.549741E-07  0.698862E-08
  0.236341E+02  0.360732E+02  0.259186E-06 -0.665788E-07
  0.236341E+02  0.385610E+02  0.208773E-06 -0.892359E-07
  0.236341E+02  0.410488E+02  0.207228E-06 -0.334064E-07
  0.236341E+02  0.435366E+02  0.161085E-06  0.241406E-07
  0.236341E+02  0.460244E+02  0.337492E-06  0.516412E-07
  0.236341E+02  0.485122E+02  0.334812E-06  0.538855E-07
  0.236341E+02  0.510000E+02  0.868784E-06  0.618583E-07
  0.236341E+02  0.534878E+02  0.725855E-06 -0.128656E-07
  0.236341E+02  0.559756E+02  0.501293E-06 -0.885604E-07
  0.236341E+02  0.584634E+02  0.107566E-06 -0.506249E-07
  0.236341E+02  0.609512E+02  0.188019E-06 -0.552220E-08
  0.236341E+02  0.634390E+02  0.225066E-06 -0.261291E-07
  0.236341E+02  0.659268E+02  0.314009E-06 -0.928761E-07
  0.236341E+02  0.684146E+02  0.294004E-06 -0.291289E-07
  0.236341E+02  0.709024E+02  0.276234E-06 -0.211980E-07
  0.236341E+02  0.733902E+02  0.417793E-06 -0.713824E-07
  0.236341E+02  0.758780E+02  0.324227E-06 -0.436563E-07
  0.236341E+02  0.783659E+02  0.835473E-06 -0.190962E-08
  0.236341E+02  0.808537E+02  0.651277E-06  0.422747E-07
  0.236341E+02  0.833415E+02  0.402504E-06 -0.214591E-07
  0.236341E+02  0.858293E+02  0.301916E-06 -0.402698E-07
  0.236341E+02  0.883171E+02  0.389122E-06 -0.400264E-07
  0.236341E+02  0.908049E+02  0.224293E-06 -0.166999E-07
  0.236341E+02  0.932927E+02  0.262448E-06  0.902306E-08
  0.236341E+02  0.957805E+02  0.503593E-06  0.371945E-07
  0.236341E+02  0.982683E+02  0.704929E-06  0.224525E-08
  0.236341E+02  0.100756E+03  0.395502E-06 -0.161598E-07
  0.261220E+02  0.124390E+01  0.593734E-06 -0.685397E-07
  0.261220E+02  0.373171E+01  0.420207E-06 -0.412726E-07
  0.261220E+02  0.621951E+01  0.280264E-06  0.272850E-07
  0.261220E+02  0.870732E+01  0.954089E-07  0.180734E-07
  0.261220E+02  0.111951E+02  0.158232E-06  0.325056E-07
  0.261220E+02  0.136829E+02  0.204683E-06  0.819274E-07
  0.261220E+02  0.161707E+02  0.158766E-06  0.892726E-07
  0.261220E+02  0.186585E+02  0.368925E-06  0.989515E-07
  0.261220E+02  0.211463E+02  0.365584E-06  0.790900E-07
  0.261220E+02  0.236341E+02  0.981454E-07  0.293275E-07
  0.261220E+02  0.261220E+02  0.167531E-06  0.229298E-07
  0.261220E+02  0.286098E+02  0.155389E-06  0.174353E-07
  0.261220E+02  0.310976E+02  0.191983E-06  0.600715E-07
  0.261220E+02  0.335854E+02  0.233957E-06  0.561749E-07
  0.261220E+02  0.360732E+02  0.174600E-06 -0.153449E-07
  0.261220E+02  0.385610E+02  0.143759E-06 -0.219273E-07
  0.261220E+02  0.410488E+02  0.957519E-07 -0.183635E-07
  0.261220E+02  0.435366E+02  0.650177E-07  0.535672E-09
  0.261220E+02  0.460244E+02  0.862604E-07  0.213689E-07
  0.261220E+02  0.485122E+02  0.143467E-06  0.161329E-07
  0.261220E+02  0.510000E+02  0.694168E-06 -0.147690E-08
  0.261220E+02  0.534878E+02  0.115534E-05 -0.819704E-07
  0.261220E+02  0.559756E+02  0.758491E-06 -0.132018E-06
  0.261220E+02  0.584634E+02  0.140908E-06 -0.426576E-07
  0.261220E+02  0.609512E+02  0.209489E-06 -0.494283E-07
  0.261220E+02  0.634390E+02  0.317691E-06 -0.401696E-07
  0.261220E+02  0.659268E+02  0.206981E-06  0.913737E-08
  0.261220E+02  0.684146E+02  0.125410E-06  0.236042E-07
  0.261220E+02  0.709024E+02  0.284392E-06  0.264126E-07
  0.261220E+02  0.733902E+02  0.215859E-06 -0.478226E-08
  0.261220E+02  0.758780E+02  0.275875E-06 -0.426080E-07
  0.261220E+02  0.783659E+02  0.429951E-06 -0.397291E-07
  0.261220E+02  0.808537E+02  0.415965E-06 -0.219482E-07
  0.261220E+02  0.833415E+02  0.518721E-06 -0.800409E-07
  0.261220E+02  0.858293E+02  0.286387E-06 -0.451368E-07
  0.261220E+02  0.883171E+02  0.418313E-06 -0.628009E-07
  0.261220E+02  0.908049E+02  0.123465E-06 -0.632863E-07
  0.261220E+02  0.932927E+02  0.222726E-06 -0.206634E-07
  0.261220E+02  0.957805E+02  0.281648E-06  0.175683E-07
  0.261220E+02  0.982683E+02  0.638537E-06  0.440812E-07
  0.261220E+02  0.100756E+03  0.292854E-06  0.141413E-07
  0.286098E+02  0.124390E+01  0.544117E-06  0.317715E-08
  0.286098E+02  0.373171E+01  0.201758E-06  0.214638E-07
  0.286098E+02  0.621951E+01  0.146635E-06  0.253100E-07
  0.286098E+02  0.870732E+01  0.143551E-06  0.193260E-07
  0.286098E+02  0.111951E+02  0.131909E-06  0.279247E-07
  0.286098E+02  0.136829E+02  0.113066E-06  0.429554E-07
  0.286098E+02  0.161707E+02  0.137770E-06  0.629280E-07
  0.286098E+02  0.186585E+02  0.315561E-06  0.716407E-07
  0.286098E+02  0.211463E+02  0.349513E-06  0.560064E-07
  0.286098E+02  0.236341E+02  0.765706E-07  0.114907E-07
  0.286098E+02  0.261220E+02  0.170661E-06  0.130214E-07
  0.286098E+02  0.286098E+02  0.205738E-06  0.143958E-07
  0.286098E+02  0.310976E+02  0.111297E-06  0.934209E-08
  0.286098E+02  0.335854E+02  0.209847E-06  0.240465E-07
  0.286098E+02  0.360732E+02  0.125993E-06  0.878435E-08
  0.286098E+02  0.385610E+02  0.994723E-07  0.148272E-08
  0.286098E+02  0.410488E+02  0.699629E-07  0.113271E-08
  0.286098E+02  0.435366E+02  0.201117E-07  0.129404E-08
  0.286098E+02  0.460244E+02  0.401100E-07  0.558631E-08
  0.286098E+02  0.485122E+02  0.270038E-06  0.294254E-08
  0.286098E+02  0.510000E+02  0.680120E-06 -0.159613E-07
  0.286098E+02  0.534878E+02  0.141756E-05 -0.379768E-07
  0.286098E+02  0.559756E+02  0.880026E-06  0.147720E-07
  0.286098E+02  0.584634E+02  0.260975E-06 -0.109963E-08
  0.286098E+02  0.609512E+02  0.355141E-06 -0.613122E-07
  0.286098E+02  0.634390E+02  0.198554E-06 -0.206576E-07
  0.286098E+02  0.659268E+02  0.172490E-06  0.461924E-10
  0.286098E+02  0.684146E+02  0.877532E-07  0.176922E-07
  0.286098E+02  0.709024E+02  0.151461E-06  0.177797E-07
  0.286098E+02  0.733902E+02  0.186274E-06  0.798466E-08
  0.286098E+02  0.758780E+02  0.180414E-06 -0.226038E-07
  0.286098E+02  0.783659E+02  0.315910E-06 -0.549215E-07
  0.286098E+02  0.808537E+02  0.394757E-06 -0.780004E-07
  0.286098E+02  0.833415E+02  0.238984E-06 -0.552243E-07
  0.286098E+02  0.858293E+02  0.322914E-06 -0.950590E-07
  0.286098E+02  0.883171E+02  0.528306E-06 -0.163052E-06
  0.286098E+02  0.908049E+02  0.112914E-06 -0.846180E-07
  0.286098E+02  0.932927E+02  0.128592E-06 -0.489976E-07
  0.286098E+02  0.957805E+02  0.484970E-06 -0.610276E-07
  0.286098E+02  0.982683E+02  0.475827E-06 -0.398811E-07
  0.286098E+02  0.100756E+03  0.336094E-06 -0.567892E-09
  0.310976E+02  0.124390E+01  0.517129E-06  0.101926E-06
  0.310976E+02  0.373171E+01  0.118794E-06  0.447511E-07
  0.310976E+02  0.621951E+01  0.162759E-06  0.235159E-07
  0.310976E+02  0.870732E+01  0.135043E-06  0.144896E-07
  0.310976E+02  0.111951E+02  0.900541E-07  0.101816E-07
  0.310976E+02  0.136829E+02  0.954431E-07  0.198557E-07
  0.310976E+02  0.161707E+02  0.107494E-06  0.221456E-07
  0.310976E+02  0.186585E+02  0.249700E-06  0.277155E-07
  0.310976E+02  0.211463E+02  0.206110E-06  0.401444E-07
  0.310976E+02  0.236341E+02  0.164260E-06  0.261455E-07
  0.310976E+02  0.261220E+02  0.176344E-06 -0.226292E-08
  0.310976E+02  0.286098E+02  0.154607E-06  0.424242E-09
  0.310976E+02  0.310976E+02  0.708880E-07 -0.677210E-08
  0.310976E+02  0.335854E+02  0.697730E-07 -0.453965E-08
  0.310976E+02  0.360732E+02  0.150923E-06  0.173224E-07
  0.310976E+02  0.385610E+02  0.837901E-07  0.217678E-07
  0.310976E+02  0.410488E+02  0.946577E-07  0.326419E-07
  0.310976E+02  0.435366E+02  0.537605E-07  0.107314E-07
  0.310976E+02  0.460244E+02  0.571131E-07 -0.842486E-08
  0.310976E+02  0.485122E+02  0.293580E-06  0.153897E-07
  0.310976E+02  0.510000E+02  0.974993E-06  0.745078E-07
  0.310976E+02  0.534878E+02  0.138390E-05  0.737649E-07
  0.310976E+02  0.559756E+02  0.358744E-06  0.656510E-07
  0.310976E+02  0.584634E+02  0.372435E-06  0.669539E-07
  0.310976E+02  0.609512E+02  0.300767E-06 -0.320374E-09
  0.310976E+02  0.634390E+02  0.251637E-06 -0.214777E-07
  0.310976E+02  0.659268E+02  0.133628E-06  0.117576E-08
  0.310976E+02  0.684146E+02  0.714701E-07  0.853503E-08
  0.310976E+02  0.709024E+02  0.160715E-06  0.640902E-08
  0.310976E+02  0.733902E+02  0.250053E-06  0.634642E-08
  0.310976E+02  0.758780E+02  0.205095E-06 -0.295158E-07
  0.310976E+02  0.783659E+02  0.190866E-06 -0.555807E-07