variables="x","h","c"
zone i=     42,T= "1dxhc;t= 0.1500E+03y,z:   1   1"
    0.00000E+00    0.50000E+00    0.00000E+00
    0.24878E+01    0.49591E+00   -0.35240E-20
    0.49756E+01    0.49198E+00    0.36927E-20
    0.74634E+01    0.48794E+00   -0.11044E-20
    0.99512E+01    0.48325E+00    0.48586E-20
    0.12439E+02    0.47760E+00    0.20188E-19
    0.14927E+02    0.47065E+00    0.11714E-18
    0.17415E+02    0.46246E+00    0.57026E-18
    0.19902E+02    0.45034E+00    0.69543E-17
    0.22390E+02    0.44389E+00    0.49145E-16
    0.24878E+02    0.43808E+00    0.24894E-15
    0.27366E+02    0.43122E+00    0.15251E-14
    0.29854E+02    0.42545E+00    0.85456E-14
    0.32341E+02    0.42175E+00    0.23852E-13
    0.34829E+02    0.41514E+00    0.56149E-13
    0.37317E+02    0.40946E+00    0.15077E-12
    0.39805E+02    0.40540E+00    0.48137E-12
    0.42293E+02    0.40287E+00    0.13695E-11
    0.44780E+02    0.39745E+00    0.85818E-11
    0.47268E+02    0.39226E+00    0.35406E-10
    0.49756E+02    0.38238E+00    0.18808E-09
    0.52244E+02    0.37632E+00    0.62323E-09
    0.54732E+02    0.36813E+00    0.18376E-08
    0.57220E+02    0.36300E+00    0.44869E-08
    0.59707E+02    0.35806E+00    0.11065E-07
    0.62195E+02    0.35465E+00    0.14015E-07
    0.64683E+02    0.34839E+00    0.64297E-07
    0.67171E+02    0.34359E+00    0.29451E-06
    0.69659E+02    0.33818E+00    0.16495E-05
    0.72146E+02    0.33453E+00    0.85607E-05
    0.74634E+02    0.32891E+00    0.48383E-04
    0.77122E+02    0.32304E+00    0.26605E-03
    0.79610E+02    0.31889E+00    0.17004E-02
    0.82098E+02    0.31742E+00   -0.52489E-02
    0.84585E+02    0.32056E+00    0.10706E+00
    0.87073E+02    0.33174E+00    0.34131E+00
    0.89561E+02    0.33997E+00    0.54661E+00
    0.92049E+02    0.35080E+00    0.75223E+00
    0.94537E+02    0.36262E+00    0.87600E+00
    0.97024E+02    0.37508E+00    0.94040E+00
    0.99512E+02    0.39609E+00    0.97001E+00
    0.10200E+03    0.40014E+00    0.10000E+01
zone i=     42,T= "1dxhc;t= 0.1500E+03y,z:   1  12"
    0.00000E+00    0.50000E+00    0.00000E+00
    0.24878E+01    0.49696E+00    0.75251E-22
    0.49756E+01    0.49229E+00   -0.10659E-20
    0.74634E+01    0.48411E+00   -0.25588E-19
    0.99512E+01    0.48047E+00   -0.24166E-18
    0.12439E+02    0.47420E+00   -0.15932E-17
    0.14927E+02    0.46706E+00   -0.59269E-17
    0.17415E+02    0.46125E+00   -0.93843E-17
    0.19902E+02    0.45128E+00   -0.26085E-16
    0.22390E+02    0.44645E+00   -0.40353E-16
    0.24878E+02    0.43941E+00   -0.93745E-16
    0.27366E+02    0.43579E+00    0.17699E-15
    0.29854E+02    0.42638E+00    0.13737E-14
    0.32341E+02    0.42080E+00    0.33021E-14
    0.34829E+02    0.41570E+00    0.58099E-14
    0.37317E+02    0.40935E+00    0.76560E-14
    0.39805E+02    0.40313E+00    0.30334E-13
    0.42293E+02    0.39852E+00    0.20337E-12
    0.44780E+02    0.39540E+00    0.10082E-11
    0.47268E+02    0.39194E+00    0.31128E-11
    0.49756E+02    0.38729E+00    0.98636E-11
    0.52244E+02    0.38240E+00    0.20639E-10
    0.54732E+02    0.37565E+00    0.25576E-10
    0.57220E+02    0.36685E+00    0.81438E-10
    0.59707E+02    0.36188E+00    0.10623E-09
    0.62195E+02    0.35400E+00   -0.55343E-10
    0.64683E+02    0.34854E+00   -0.54876E-09
    0.67171E+02    0.34261E+00   -0.12146E-08
    0.69659E+02    0.33792E+00   -0.12071E-08
    0.72146E+02    0.33446E+00   -0.20926E-08
    0.74634E+02    0.32805E+00   -0.16991E-07
    0.77122E+02    0.31893E+00   -0.14759E-06
    0.79610E+02    0.31304E+00   -0.11400E-05
    0.82098E+02    0.30508E+00   -0.46657E-05
    0.84585E+02    0.29932E+00    0.99670E-04
    0.87073E+02    0.29328E+00    0.44282E-03
    0.89561E+02    0.28688E+00    0.48182E-02
    0.92049E+02    0.27896E+00    0.18121E-01
    0.94537E+02    0.26611E+00    0.32521E-01
    0.97024E+02    0.24192E+00    0.83656E-01
    0.99512E+02    0.19551E+00    0.39064E+00
    0.10200E+03    0.16007E+00    0.10000E+01
zone i=     42,T= "1dxhc;t= 0.1500E+03y,z:   1  22"
    0.00000E+00    0.49917E+00   -0.55527E-16
    0.24878E+01    0.49583E+00   -0.16680E-15
    0.49756E+01    0.49231E+00   -0.59586E-15
    0.74634E+01    0.48750E+00   -0.14987E-14
    0.99512E+01    0.48216E+00   -0.41657E-14
    0.12439E+02    0.47380E+00   -0.94149E-14
    0.14927E+02    0.46464E+00   -0.16247E-13
    0.17415E+02    0.45098E+00   -0.39260E-13
    0.19902E+02    0.43909E+00   -0.72073E-13
    0.22390E+02    0.42968E+00   -0.13197E-12
    0.24878E+02    0.41965E+00   -0.31228E-12
    0.27366E+02    0.40984E+00   -0.54455E-12
    0.29854E+02    0.39363E+00   -0.15979E-11
    0.32341E+02    0.37915E+00   -0.55102E-11
    0.34829E+02    0.36446E+00   -0.13506E-10
    0.37317E+02    0.35154E+00   -0.35416E-10
    0.39805E+02    0.34511E+00   -0.80321E-10
    0.42293E+02    0.33747E+00   -0.17942E-09
    0.44780E+02    0.32727E+00   -0.40000E-09
    0.47268E+02    0.31130E+00   -0.69040E-09
    0.49756E+02    0.29475E+00   -0.12929E-08
    0.52244E+02    0.27657E+00   -0.25719E-08
    0.54732E+02    0.26794E+00   -0.46225E-08
    0.57220E+02    0.25760E+00   -0.54402E-08
    0.59707E+02    0.24791E+00   -0.83541E-08
    0.62195E+02    0.24137E+00   -0.13010E-07
    0.64683E+02    0.23040E+00   -0.31558E-07
    0.67171E+02    0.20709E+00   -0.94921E-07
    0.69659E+02    0.19220E+00   -0.21058E-06
    0.72146E+02    0.17878E+00   -0.90938E-07
    0.74634E+02    0.16181E+00   -0.16476E-06
    0.77122E+02    0.15444E+00   -0.21401E-06
    0.79610E+02    0.14186E+00   -0.30700E-06
    0.82098E+02    0.12544E+00   -0.33764E-06
    0.84585E+02    0.10867E+00   -0.24866E-06
    0.87073E+02    0.92357E-01    0.33318E-05
    0.89561E+02    0.78775E-01   -0.28047E-04
    0.92049E+02    0.72292E-01   -0.27306E-04
    0.94537E+02    0.66326E-01   -0.52528E-04
    0.97024E+02    0.53444E-01   -0.54915E-04
    0.99512E+02    0.33834E-01    0.51677E-03
    0.10200E+03    0.63120E-02    0.14124E-02
zone i=     42,T= "1dxhc;t= 0.3000E+03y,z:   1   1"
    0.00000E+00    0.50000E+00    0.00000E+00
    0.24878E+01    0.49596E+00   -0.25298E-17
    0.49756E+01    0.49209E+00    0.30457E-17
    0.74634E+01    0.48809E+00   -0.59506E-18
    0.99512E+01    0.48346E+00    0.47321E-17
    0.12439E+02    0.47789E+00    0.17140E-16
    0.14927E+02    0.47103E+00    0.82759E-16
    0.17415E+02    0.46295E+00    0.32210E-15
    0.19902E+02    0.45099E+00    0.31049E-14
    0.22390E+02    0.44463E+00    0.17425E-13
    0.24878E+02    0.43890E+00    0.74776E-13
    0.27366E+02    0.43215E+00    0.37004E-12
    0.29854E+02    0.42647E+00    0.17247E-11
    0.32341E+02    0.42283E+00    0.43353E-11
    0.34829E+02    0.41633E+00    0.96899E-11
    0.37317E+02    0.41075E+00    0.24563E-10
    0.39805E+02    0.40675E+00    0.70605E-10
    0.42293E+02    0.40427E+00    0.17459E-09
    0.44780E+02    0.39895E+00    0.92456E-09
    0.47268E+02    0.39386E+00    0.32773E-08
    0.49756E+02    0.38418E+00    0.14631E-07
    0.52244E+02    0.37823E+00    0.42458E-07
    0.54732E+02    0.37020E+00    0.11814E-06
    0.57220E+02    0.36518E+00    0.28365E-06
    0.59707E+02    0.36033E+00    0.70796E-06
    0.62195E+02    0.35698E+00    0.11651E-05
    0.64683E+02    0.35083E+00    0.55444E-05
    0.67171E+02    0.34612E+00    0.23995E-04
    0.69659E+02    0.34085E+00    0.13352E-03
    0.72146E+02    0.33737E+00    0.66928E-03
    0.74634E+02    0.33228E+00    0.33357E-02
    0.77122E+02    0.32754E+00    0.13652E-01
    0.79610E+02    0.32638E+00    0.76183E-02
    0.82098E+02    0.33481E+00    0.30796E+00
    0.84585E+02    0.34162E+00    0.48579E+00
    0.87073E+02    0.35366E+00    0.66922E+00
    0.89561E+02    0.36051E+00    0.75998E+00
    0.92049E+02    0.36875E+00    0.86753E+00
    0.94537E+02    0.37718E+00    0.93523E+00
    0.97024E+02    0.38574E+00    0.96654E+00
    0.99512E+02    0.40081E+00    0.98460E+00
    0.10200E+03    0.40014E+00    0.10000E+01
zone i=     42,T= "1dxhc;t= 0.3000E+03y,z:   1  12"
    0.00000E+00    0.50000E+00    0.00000E+00
    0.24878E+01    0.49700E+00    0.76956E-19
    0.49756E+01    0.49239E+00   -0.53974E-18
    0.74634E+01    0.48432E+00   -0.89298E-17
    0.99512E+01    0.48072E+00   -0.59591E-16
    0.12439E+02    0.47454E+00   -0.33430E-15
    0.14927E+02    0.46749E+00   -0.10878E-14
    0.17415E+02    0.46176E+00   -0.14829E-14
    0.19902E+02    0.45192E+00   -0.37587E-14
    0.22390E+02    0.44714E+00   -0.61216E-14
    0.24878E+02    0.44020E+00   -0.16192E-13
    0.27366E+02    0.43663E+00    0.11886E-13
    0.29854E+02    0.42736E+00    0.10815E-12
    0.32341E+02    0.42187E+00    0.29811E-12
    0.34829E+02    0.41686E+00    0.48148E-12
    0.37317E+02    0.41062E+00    0.58964E-12
    0.39805E+02    0.40452E+00    0.21288E-11
    0.42293E+02    0.39999E+00    0.11540E-10
    0.44780E+02    0.39694E+00    0.48979E-10
    0.47268E+02    0.39354E+00    0.13890E-09
    0.49756E+02    0.38898E+00    0.39740E-09
    0.52244E+02    0.38418E+00    0.73487E-09
    0.54732E+02    0.37756E+00    0.68042E-09
    0.57220E+02    0.36893E+00    0.20432E-08
    0.59707E+02    0.36404E+00    0.17831E-08
    0.62195E+02    0.35627E+00   -0.37229E-08
    0.64683E+02    0.35085E+00   -0.15933E-07
    0.67171E+02    0.34493E+00   -0.38656E-07
    0.69659E+02    0.34015E+00   -0.50044E-07
    0.72146E+02    0.33654E+00   -0.78167E-07
    0.74634E+02    0.32960E+00   -0.39079E-06
    0.77122E+02    0.31923E+00   -0.26476E-05
    0.79610E+02    0.31222E+00   -0.15254E-04
    0.82098E+02    0.30193E+00   -0.23037E-04
    0.84585E+02    0.29402E+00    0.10951E-02
    0.87073E+02    0.28622E+00    0.26690E-02
    0.89561E+02    0.27880E+00    0.14565E-01
    0.92049E+02    0.27053E+00    0.37543E-01
    0.94537E+02    0.25791E+00    0.57315E-01
    0.97024E+02    0.23510E+00    0.12128E+00
    0.99512E+02    0.19237E+00    0.42121E+00
    0.10200E+03    0.16007E+00    0.10000E+01
zone i=     42,T= "1dxhc;t= 0.3000E+03y,z:   1  22"
    0.00000E+00    0.49917E+00   -0.57158E-14
    0.24878E+01    0.49583E+00   -0.13581E-13
    0.49756E+01    0.49232E+00   -0.42666E-13
    0.74634E+01    0.48753E+00   -0.90516E-13
    0.99512E+01    0.48219E+00   -0.21429E-12
    0.12439E+02    0.47385E+00   -0.42921E-12
    0.14927E+02    0.46471E+00   -0.75099E-12
    0.17415E+02    0.45107E+00   -0.17256E-11
    0.19902E+02    0.43920E+00   -0.32304E-11
    0.22390E+02    0.42980E+00   -0.64886E-11
    0.24878E+02    0.41979E+00   -0.13982E-10
    0.27366E+02    0.41000E+00   -0.24183E-10
    0.29854E+02    0.39381E+00   -0.60076E-10
    0.32341E+02    0.37933E+00   -0.16166E-09
    0.34829E+02    0.36465E+00   -0.32930E-09
    0.37317E+02    0.35172E+00   -0.73995E-09
    0.39805E+02    0.34530E+00   -0.14292E-08
    0.42293E+02    0.33765E+00   -0.26687E-08
    0.44780E+02    0.32744E+00   -0.52575E-08
    0.47268E+02    0.31146E+00   -0.84412E-08
    0.49756E+02    0.29489E+00   -0.15219E-07
    0.52244E+02    0.27671E+00   -0.25499E-07
    0.54732E+02    0.26806E+00   -0.38333E-07
    0.57220E+02    0.25771E+00   -0.42008E-07
    0.59707E+02    0.24801E+00   -0.68607E-07
    0.62195E+02    0.24147E+00   -0.99432E-07
    0.64683E+02    0.23048E+00   -0.20022E-06
    0.67171E+02    0.20716E+00   -0.44080E-06
    0.69659E+02    0.19225E+00   -0.74862E-06
    0.72146E+02    0.17881E+00   -0.33139E-06
    0.74634E+02    0.16183E+00   -0.70673E-06
    0.77122E+02    0.15446E+00   -0.94333E-06
    0.79610E+02    0.14186E+00   -0.19273E-05
    0.82098E+02    0.12543E+00   -0.29865E-05
    0.84585E+02    0.10866E+00   -0.39507E-05
    0.87073E+02    0.92355E-01    0.53424E-05
    0.89561E+02    0.78783E-01   -0.29493E-04
    0.92049E+02    0.72305E-01   -0.34526E-04
    0.94537E+02    0.66341E-01   -0.59321E-04
    0.97024E+02    0.53457E-01   -0.52826E-04
    0.99512E+02    0.33842E-01    0.52286E-03
    0.10200E+03    0.63140E-02    0.14666E-02
zone i=     42,T= "1dxhc;t= 0.4500E+03y,z:   1   1"
    0.00000E+00    0.50000E+00    0.00000E+00
    0.24878E+01    0.49600E+00   -0.13901E-15
    0.49756E+01    0.49216E+00    0.18694E-15
    0.74634E+01    0.48820E+00    0.10420E-16
    0.99512E+01    0.48361E+00    0.40985E-15
    0.12439E+02    0.47809E+00    0.13179E-14
    0.14927E+02    0.47129E+00    0.57458E-14
    0.17415E+02    0.46328E+00    0.19209E-13
    0.19902E+02    0.45144E+00    0.15722E-12
    0.22390E+02    0.44514E+00    0.75343E-12
    0.24878E+02    0.43947E+00    0.29048E-11
    0.27366E+02    0.43279E+00    0.12502E-10
    0.29854E+02    0.42718E+00    0.52073E-10
    0.32341E+02    0.42357E+00    0.12346E-09
    0.34829E+02    0.41715E+00    0.27322E-09
    0.37317E+02    0.41164E+00    0.67978E-09
    0.39805E+02    0.40770E+00    0.18326E-08
    0.42293E+02    0.40524E+00    0.41712E-08
    0.44780E+02    0.40000E+00    0.19718E-07
    0.47268E+02    0.39499E+00    0.62910E-07
    0.49756E+02    0.38545E+00    0.25018E-06
    0.52244E+02    0.37959E+00    0.66520E-06
    0.54732E+02    0.37168E+00    0.17624E-05
    0.57220E+02    0.36674E+00    0.41340E-05
    0.59707E+02    0.36196E+00    0.10311E-04
    0.62195E+02    0.35866E+00    0.18753E-04
    0.64683E+02    0.35260E+00    0.79307E-04
    0.67171E+02    0.34798E+00    0.26770E-03
    0.69659E+02    0.34290E+00    0.11554E-02
    0.72146E+02    0.33975E+00    0.45093E-02
    0.74634E+02    0.33546E+00    0.19428E-01
    0.77122E+02    0.33399E+00    0.58394E-02
    0.79610E+02    0.33722E+00    0.29033E+00
    0.82098E+02    0.34823E+00    0.57319E+00
    0.84585E+02    0.35457E+00    0.65999E+00
    0.87073E+02    0.36510E+00    0.79327E+00
    0.89561E+02    0.37075E+00    0.84181E+00
    0.92049E+02    0.37734E+00    0.91000E+00
    0.94537E+02    0.38395E+00    0.95447E+00
    0.97024E+02    0.39062E+00    0.97334E+00
    0.99512E+02    0.40295E+00    0.98926E+00
    0.10200E+03    0.40014E+00    0.10000E+01
zone i=     42,T= "1dxhc;t= 0.4500E+03y,z:   1  12"
    0.00000E+00    0.50000E+00    0.00000E+00
    0.24878E+01    0.49702E+00    0.31959E-17
    0.49756E+01    0.49245E+00   -0.22707E-16
    0.74634E+01    0.48446E+00   -0.25734E-15
    0.99512E+01    0.48090E+00   -0.13727E-14
    0.12439E+02    0.47477E+00   -0.70671E-14
    0.14927E+02    0.46778E+00   -0.21081E-13
    0.17415E+02    0.46210E+00   -0.27084E-13
    0.19902E+02    0.45235E+00   -0.66040E-13
    0.22390E+02    0.44762E+00   -0.11465E-12
    0.24878E+02    0.44074E+00   -0.32606E-12
    0.27366E+02    0.43721E+00    0.98280E-13
    0.29854E+02    0.42804E+00    0.14575E-11
    0.32341E+02    0.42261E+00    0.46676E-11
    0.34829E+02    0.41766E+00    0.78271E-11
    0.37317E+02    0.41151E+00    0.99246E-11
    0.39805E+02    0.40548E+00    0.34435E-10
    0.42293E+02    0.40102E+00    0.16297E-09
    0.44780E+02    0.39801E+00    0.62842E-09
    0.47268E+02    0.39466E+00    0.16843E-08
    0.49756E+02    0.39017E+00    0.44648E-08
    0.52244E+02    0.38544E+00    0.75385E-08
    0.54732E+02    0.37892E+00    0.59421E-08
    0.57220E+02    0.37040E+00    0.17616E-07
    0.59707E+02    0.36558E+00    0.13608E-07
    0.62195E+02    0.35787E+00   -0.32714E-07
    0.64683E+02    0.35247E+00   -0.10518E-06
    0.67171E+02    0.34650E+00   -0.24235E-06
    0.69659E+02    0.34159E+00   -0.30521E-06
    0.72146E+02    0.33776E+00   -0.29270E-06
    0.74634E+02    0.33019E+00   -0.15501E-05
    0.77122E+02    0.31851E+00   -0.94223E-05
    0.79610E+02    0.31056E+00   -0.39845E-04
    0.82098E+02    0.29873E+00    0.33274E-04
    0.84585E+02    0.28982E+00    0.27413E-02
    0.87073E+02    0.28147E+00    0.53750E-02
    0.89561E+02    0.27389E+00    0.21995E-01
    0.92049E+02    0.26575E+00    0.49340E-01
    0.94537E+02    0.25351E+00    0.72279E-01
    0.97024E+02    0.23159E+00    0.13891E+00
    0.99512E+02    0.19081E+00    0.43165E+00
    0.10200E+03    0.16007E+00    0.10000E+01
zone i=     42,T= "1dxhc;t= 0.4500E+03y,z:   1  22"
    0.00000E+00    0.49917E+00   -0.66017E-13
    0.24878E+01    0.49584E+00   -0.13467E-12
    0.49756E+01    0.49233E+00   -0.40255E-12
    0.74634E+01    0.48754E+00   -0.79120E-12
    0.99512E+01    0.48221E+00   -0.17511E-11
    0.12439E+02    0.47388E+00   -0.33498E-11
    0.14927E+02    0.46475E+00   -0.59863E-11
    0.17415E+02    0.45113E+00   -0.13410E-10
    0.19902E+02    0.43928E+00   -0.25067E-10
    0.22390E+02    0.42989E+00   -0.50395E-10
    0.24878E+02    0.41989E+00   -0.10475E-09
    0.27366E+02    0.41010E+00   -0.18011E-09
    0.29854E+02    0.39392E+00   -0.41009E-09
    0.32341E+02    0.37945E+00   -0.95732E-09
    0.34829E+02    0.36477E+00   -0.17579E-08
    0.37317E+02    0.35184E+00   -0.35992E-08
    0.39805E+02    0.34541E+00   -0.63437E-08
    0.42293E+02    0.33776E+00   -0.10822E-07
    0.44780E+02    0.32755E+00   -0.20015E-07
    0.47268E+02    0.31156E+00   -0.30820E-07
    0.49756E+02    0.29498E+00   -0.53097E-07
    0.52244E+02    0.27678E+00   -0.81357E-07
    0.54732E+02    0.26813E+00   -0.11471E-06
    0.57220E+02    0.25777E+00   -0.12700E-06
    0.59707E+02    0.24807E+00   -0.20509E-06
    0.62195E+02    0.24152E+00   -0.29202E-06
    0.64683E+02    0.23053E+00   -0.53803E-06
    0.67171E+02    0.20718E+00   -0.10325E-05
    0.69659E+02    0.19227E+00   -0.15850E-05
    0.72146E+02    0.17882E+00   -0.87278E-06
    0.74634E+02    0.16182E+00   -0.17550E-05
    0.77122E+02    0.15444E+00   -0.26499E-05
    0.79610E+02    0.14184E+00   -0.50928E-05
    0.82098E+02    0.12541E+00   -0.75399E-05
    0.84585E+02    0.10864E+00   -0.10320E-04
    0.87073E+02    0.92334E-01    0.96597E-06
    0.89561E+02    0.78768E-01   -0.33333E-04
    0.92049E+02    0.72294E-01   -0.44477E-04
    0.94537E+02    0.66334E-01   -0.70491E-04
    0.97024E+02    0.53457E-01   -0.60957E-04
    0.99512E+02    0.33848E-01    0.52068E-03
    0.10200E+03    0.63158E-02    0.14805E-02
zone i=     42,T= "1dxhc;t= 0.6000E+03y,z:   1   1"
    0.00000E+00    0.50000E+00    0.00000E+00
    0.24878E+01    0.49602E+00   -0.19579E-14
    0.49756E+01    0.49221E+00    0.31189E-14
    0.74634E+01    0.48827E+00    0.16316E-14
    0.99512E+01    0.48371E+00    0.10841E-13
    0.12439E+02    0.47822E+00    0.31203E-13
    0.14927E+02    0.47147E+00    0.12848E-12
    0.17415E+02    0.46351E+00    0.38625E-12
    0.19902E+02    0.45175E+00    0.28067E-11
    0.22390E+02    0.44549E+00    0.12001E-10
    0.24878E+02    0.43986E+00    0.42783E-10
    0.27366E+02    0.43323E+00    0.16672E-09
    0.29854E+02    0.42766E+00    0.63869E-09
    0.32341E+02    0.42409E+00    0.14435E-08
    0.34829E+02    0.41772E+00    0.31541E-08
    0.37317E+02    0.41225E+00    0.76636E-08
    0.39805E+02    0.40835E+00    0.19367E-07
    0.42293E+02    0.40592E+00    0.40643E-07
    0.44780E+02    0.40073E+00    0.17064E-06
    0.47268E+02    0.39577E+00    0.48368E-06
    0.49756E+02    0.38633E+00    0.16962E-05
    0.52244E+02    0.38055E+00    0.40699E-05
    0.54732E+02    0.37273E+00    0.99623E-05
    0.57220E+02    0.36784E+00    0.21919E-04
    0.59707E+02    0.36312E+00    0.51476E-04
    0.62195E+02    0.35985E+00    0.93209E-04
    0.64683E+02    0.35387E+00    0.34398E-03
    0.67171E+02    0.34934E+00    0.97913E-03
    0.69659E+02    0.34451E+00    0.35833E-02
    0.72146E+02    0.34161E+00    0.12008E-01
    0.74634E+02    0.33965E+00    0.40718E-03
    0.77122E+02    0.34195E+00    0.29186E+00
    0.79610E+02    0.34695E+00    0.51711E+00
    0.82098E+02    0.35738E+00    0.69871E+00
    0.84585E+02    0.36316E+00    0.75941E+00
    0.87073E+02    0.37228E+00    0.84952E+00
    0.89561E+02    0.37708E+00    0.88384E+00
    0.92049E+02    0.38260E+00    0.93249E+00
    0.94537E+02    0.38810E+00    0.96462E+00
    0.97024E+02    0.39362E+00    0.97766E+00
    0.99512E+02    0.40428E+00    0.99191E+00
    0.10200E+03    0.40014E+00    0.10000E+01
zone i=     42,T= "1dxhc;t= 0.6000E+03y,z:   1  12"
    0.00000E+00    0.50000E+00    0.00000E+00
    0.24878E+01    0.49704E+00    0.29789E-16
    0.49756E+01    0.49250E+00   -0.28574E-15
    0.74634E+01    0.48456E+00   -0.24257E-14
    0.99512E+01    0.48102E+00   -0.11255E-13
    0.12439E+02    0.47492E+00   -0.54090E-13
    0.14927E+02    0.46798E+00   -0.14981E-12
    0.17415E+02    0.46234E+00   -0.19149E-12
    0.19902E+02    0.45265E+00   -0.45984E-12
    0.22390E+02    0.44795E+00   -0.80779E-12
    0.24878E+02    0.44111E+00   -0.23622E-11
    0.27366E+02    0.43760E+00    0.11901E-12
    0.29854E+02    0.42850E+00    0.89581E-11
    0.32341E+02    0.42312E+00    0.31708E-10
    0.34829E+02    0.41822E+00    0.57380E-10
    0.37317E+02    0.41212E+00    0.74697E-10
    0.39805E+02    0.40615E+00    0.24552E-09
    0.42293E+02    0.40173E+00    0.10326E-08
    0.44780E+02    0.39876E+00    0.36234E-08
    0.47268E+02    0.39544E+00    0.91769E-08
    0.49756E+02    0.39099E+00    0.22749E-07
    0.52244E+02    0.38632E+00    0.36254E-07
    0.54732E+02    0.37987E+00    0.27007E-07
    0.57220E+02    0.37143E+00    0.76999E-07
    0.59707E+02    0.36665E+00    0.61553E-07
    0.62195E+02    0.35898E+00   -0.12679E-06
    0.64683E+02    0.35357E+00   -0.34715E-06
    0.67171E+02    0.34754E+00   -0.73907E-06
    0.69659E+02    0.34248E+00   -0.87279E-06
    0.72146E+02    0.33843E+00   -0.59053E-06
    0.74634E+02    0.33028E+00   -0.29938E-05
    0.77122E+02    0.31752E+00   -0.13522E-04
    0.79610E+02    0.30889E+00   -0.44626E-04
    0.82098E+02    0.29616E+00    0.19104E-03
    0.84585E+02    0.28678E+00    0.42970E-02
    0.87073E+02    0.27823E+00    0.76886E-02
    0.89561E+02    0.27066E+00    0.26938E-01
    0.92049E+02    0.26266E+00    0.56581E-01
    0.94537E+02    0.25070E+00    0.81720E-01
    0.97024E+02    0.22938E+00    0.14905E+00
    0.99512E+02    0.18982E+00    0.43654E+00
    0.10200E+03    0.16007E+00    0.10000E+01
zone i=     42,T= "1dxhc;t= 0.6000E+03y,z:   1  22"
    0.00000E+00    0.49917E+00   -0.31613E-12
    0.24878E+01    0.49584E+00   -0.58803E-12
    0.49756E+01    0.49234E+00   -0.17232E-11
    0.74634E+01    0.48755E+00   -0.32593E-11
    0.99512E+01    0.48222E+00   -0.69799E-11
    0.12439E+02    0.47390E+00   -0.13010E-10
    0.14927E+02    0.46477E+00   -0.23355E-10
    0.17415E+02    0.45116E+00   -0.50852E-10
    0.19902E+02    0.43932E+00   -0.93172E-10
    0.22390E+02    0.42994E+00   -0.18297E-09
    0.24878E+02    0.41995E+00   -0.36931E-09
    0.27366E+02    0.41017E+00   -0.62557E-09
    0.29854E+02    0.39400E+00   -0.13409E-08
    0.32341E+02    0.37953E+00   -0.28442E-08
    0.34829E+02    0.36484E+00   -0.48845E-08
    0.37317E+02    0.35192E+00   -0.93772E-08
    0.39805E+02    0.34549E+00   -0.15592E-07
    0.42293E+02    0.33783E+00   -0.25320E-07
    0.44780E+02    0.32762E+00   -0.44936E-07
    0.47268E+02    0.31161E+00   -0.67448E-07
    0.49756E+02    0.29503E+00   -0.11244E-06
    0.52244E+02    0.27682E+00   -0.16557E-06
    0.54732E+02    0.26817E+00   -0.22860E-06
    0.57220E+02    0.25780E+00   -0.26099E-06
    0.59707E+02    0.24809E+00   -0.41030E-06
    0.62195E+02    0.24154E+00   -0.57904E-06
    0.64683E+02    0.23054E+00   -0.10159E-05
    0.67171E+02    0.20719E+00   -0.17907E-05
    0.69659E+02    0.19226E+00   -0.26030E-05
    0.72146E+02    0.17880E+00   -0.17242E-05
    0.74634E+02    0.16180E+00   -0.32497E-05
    0.77122E+02    0.15442E+00   -0.50978E-05
    0.79610E+02    0.14181E+00   -0.87445E-05
    0.82098E+02    0.12538E+00   -0.12112E-04
    0.84585E+02    0.10861E+00   -0.16047E-04
    0.87073E+02    0.92310E-01   -0.38845E-05
    0.89561E+02    0.78748E-01   -0.37680E-04
    0.92049E+02    0.72277E-01   -0.51849E-04
    0.94537E+02    0.66320E-01   -0.78230E-04
    0.97024E+02    0.53449E-01   -0.66926E-04
    0.99512E+02    0.33845E-01    0.51790E-03
    0.10200E+03    0.63157E-02    0.14842E-02
zone i=     42,T= "1dxhc;t= 0.7500E+03y,z:   1   1"
    0.00000E+00    0.50000E+00    0.00000E+00
    0.24878E+01    0.49604E+00   -0.11741E-13
    0.49756E+01    0.49224E+00    0.26793E-13
    0.74634E+01    0.48832E+00    0.32050E-13
    0.99512E+01    0.48379E+00    0.14302E-12
    0.12439E+02    0.47832E+00    0.37423E-12
    0.14927E+02    0.47160E+00    0.14720E-11
    0.17415E+02    0.46367E+00    0.40597E-11
    0.19902E+02    0.45197E+00    0.26594E-10
    0.22390E+02    0.44574E+00    0.10244E-09
    0.24878E+02    0.44014E+00    0.33892E-09
    0.27366E+02    0.43354E+00    0.12051E-08
    0.29854E+02    0.42800E+00    0.42417E-08
    0.32341E+02    0.42445E+00    0.91174E-08
    0.34829E+02    0.41812E+00    0.19438E-07
    0.37317E+02    0.41269E+00    0.45557E-07
    0.39805E+02    0.40881E+00    0.10773E-06
    0.42293E+02    0.40640E+00    0.20854E-06
    0.44780E+02    0.40125E+00    0.77689E-06
    0.47268E+02    0.39633E+00    0.19599E-05
    0.49756E+02    0.38697E+00    0.60705E-05
    0.52244E+02    0.38124E+00    0.13211E-04
    0.54732E+02    0.37349E+00    0.29955E-04
    0.57220E+02    0.36864E+00    0.62317E-04
    0.59707E+02    0.36396E+00    0.14078E-03
    0.62195E+02    0.36073E+00    0.26304E-03
    0.64683E+02    0.35483E+00    0.95001E-03
    0.67171E+02    0.35040E+00    0.27977E-02
    0.69659E+02    0.34592E+00    0.11723E-01
    0.72146E+02    0.34371E+00    0.44286E-01
    0.74634E+02    0.34377E+00    0.25470E-01
    0.77122E+02    0.34834E+00    0.35507E+00
    0.79610E+02    0.35437E+00    0.67653E+00
    0.82098E+02    0.36416E+00    0.78694E+00
    0.84585E+02    0.36929E+00    0.81520E+00
    0.87073E+02    0.37726E+00    0.88274E+00
    0.89561E+02    0.38145E+00    0.90915E+00
    0.92049E+02    0.38621E+00    0.94657E+00
    0.94537E+02    0.39094E+00    0.97115E+00
    0.97024E+02    0.39568E+00    0.98078E+00
    0.99512E+02    0.40519E+00    0.99366E+00
    0.10200E+03    0.40014E+00    0.10000E+01
zone i=     42,T= "1dxhc;t= 0.7500E+03y,z:   1  12"
    0.00000E+00    0.50000E+00    0.00000E+00
    0.24878E+01    0.49706E+00    0.10186E-15
    0.49756E+01    0.49253E+00   -0.17355E-14
    0.74634E+01    0.48462E+00   -0.12510E-13
    0.99512E+01    0.48110E+00   -0.51972E-13
    0.12439E+02    0.47503E+00   -0.23213E-12
    0.14927E+02    0.46812E+00   -0.60175E-12
    0.17415E+02    0.46251E+00   -0.78939E-12
    0.19902E+02    0.45286E+00   -0.18716E-11
    0.22390E+02    0.44818E+00   -0.31708E-11
    0.24878E+02    0.44138E+00   -0.94779E-11
    0.27366E+02    0.43788E+00   -0.33089E-12
    0.29854E+02    0.42883E+00    0.36597E-10
    0.32341E+02    0.42348E+00    0.13296E-09
    0.34829E+02    0.41861E+00    0.25202E-09
    0.37317E+02    0.41255E+00    0.32795E-09
    0.39805E+02    0.40663E+00    0.10159E-08
    0.42293E+02    0.40224E+00    0.38606E-08
    0.44780E+02    0.39929E+00    0.12434E-07
    0.47268E+02    0.39600E+00    0.30001E-07
    0.49756E+02    0.39159E+00    0.70669E-07
    0.52244E+02    0.38695E+00    0.10925E-06
    0.54732E+02    0.38055E+00    0.81909E-07
    0.57220E+02    0.37218E+00    0.21957E-06
    0.59707E+02    0.36742E+00    0.18820E-06
    0.62195E+02    0.35978E+00   -0.30855E-06
    0.64683E+02    0.35435E+00   -0.78375E-06
    0.67171E+02    0.34825E+00   -0.15364E-05
    0.69659E+02    0.34303E+00   -0.18377E-05
    0.72146E+02    0.33878E+00   -0.11124E-05
    0.74634E+02    0.33014E+00   -0.26778E-05
    0.77122E+02    0.31657E+00   -0.50979E-05
    0.79610E+02    0.30747E+00   -0.18793E-04
    0.82098E+02    0.29420E+00    0.39788E-03
    0.84585E+02    0.28459E+00    0.55370E-02
    0.87073E+02    0.27596E+00    0.94894E-02
    0.89561E+02    0.26842E+00    0.30276E-01
    0.92049E+02    0.26053E+00    0.61330E-01
    0.94537E+02    0.24878E+00    0.88120E-01
    0.97024E+02    0.22788E+00    0.15582E+00
    0.99512E+02    0.18916E+00    0.43951E+00
    0.10200E+03    0.16007E+00    0.10000E+01
zone i=     42,T= "1dxhc;t= 0.7500E+03y,z:   1  22"
    0.00000E+00    0.49917E+00   -0.97409E-12
    0.24878E+01    0.49584E+00   -0.17037E-11
    0.49756E+01    0.49234E+00   -0.49212E-11
    0.74634E+01    0.48756E+00   -0.90634E-11
    0.99512E+01    0.48223E+00   -0.18927E-10
    0.12439E+02    0.47391E+00   -0.34442E-10
    0.14927E+02    0.46479E+00   -0.61243E-10
    0.17415E+02    0.45119E+00   -0.12897E-09
    0.19902E+02    0.43935E+00   -0.23007E-09
    0.22390E+02    0.42997E+00   -0.43957E-09
    0.24878E+02    0.41998E+00   -0.86264E-09
    0.27366E+02    0.41021E+00   -0.14354E-08
    0.29854E+02    0.39405E+00   -0.29397E-08
    0.32341E+02    0.37958E+00   -0.58228E-08
    0.34829E+02    0.36489E+00   -0.95527E-08
    0.37317E+02    0.35196E+00   -0.17515E-07
    0.39805E+02    0.34553E+00   -0.28011E-07
    0.42293E+02    0.33788E+00   -0.44228E-07
    0.44780E+02    0.32766E+00   -0.76267E-07
    0.47268E+02    0.31165E+00   -0.11274E-06
    0.49756E+02    0.29506E+00   -0.18391E-06
    0.52244E+02    0.27684E+00   -0.26624E-06
    0.54732E+02    0.26818E+00   -0.36542E-06
    0.57220E+02    0.25781E+00   -0.42973E-06
    0.59707E+02    0.24810E+00   -0.66175E-06
    0.62195E+02    0.24155E+00   -0.92715E-06
    0.64683E+02    0.23054E+00   -0.15704E-05
    0.67171E+02    0.20718E+00   -0.26118E-05
    0.69659E+02    0.19225E+00   -0.36650E-05
    0.72146E+02    0.17879E+00   -0.27622E-05
    0.74634E+02    0.16177E+00   -0.49872E-05
    0.77122E+02    0.15439E+00   -0.77815E-05
    0.79610E+02    0.14179E+00   -0.12193E-04
    0.82098E+02    0.12535E+00   -0.15999E-04
    0.84585E+02    0.10858E+00   -0.20507E-04
    0.87073E+02    0.92285E-01   -0.78065E-05
    0.89561E+02    0.78728E-01   -0.41200E-04
    0.92049E+02    0.72259E-01   -0.56952E-04
    0.94537E+02    0.66305E-01   -0.83446E-04
    0.97024E+02    0.53438E-01   -0.71224E-04
    0.99512E+02    0.33839E-01    0.51489E-03
    0.10200E+03    0.63147E-02    0.14831E-02
zone i=     42,T= "1dxhc;t= 0.9000E+03y,z:   1   1"
    0.00000E+00    0.50000E+00    0.00000E+00
    0.24878E+01    0.49605E+00   -0.36167E-13
    0.49756E+01    0.49227E+00    0.16792E-12