          Title="3D head and conc at t=   0.5000E+04 days"
          variables="x","y","z","head","conc"
          zone i=      22, j=      42, k=      42, T="3D"
  0.00000000E+00  0.00000000E+00  0.00000000E+00  0.50000000E+00  0.00000000E+00
  0.00000000E+00  0.00000000E+00  0.97615075E+00  0.50000000E+00  0.00000000E+00
  0.00000000E+00  0.00000000E+00  0.19523015E+01  0.50000000E+00  0.00000000E+00
  0.00000000E+00  0.00000000E+00  0.29284522E+01  0.50000000E+00  0.00000000E+00
  0.00000000E+00  0.00000000E+00  0.39046030E+01  0.50000000E+00  0.00000000E+00
  0.00000000E+00  0.00000000E+00  0.48807537E+01  0.50000000E+00  0.00000000E+00
  0.00000000E+00  0.00000000E+00  0.58569045E+01  0.50000000E+00  0.00000000E+00
  0.00000000E+00  0.00000000E+00  0.68330552E+01  0.50000000E+00  0.00000000E+00
  0.00000000E+00  0.00000000E+00  0.78092060E+01  0.50000000E+00  0.00000000E+00
  0.00000000E+00  0.00000000E+00  0.87853567E+01  0.50000000E+00  0.00000000E+00
  0.00000000E+00  0.00000000E+00  0.97615075E+01  0.50000000E+00  0.00000000E+00
  0.00000000E+00  0.00000000E+00  0.10737658E+02  0.50000000E+00  0.00000000E+00
  0.00000000E+00  0.00000000E+00  0.11713809E+02  0.50000000E+00  0.00000000E+00
  0.00000000E+00  0.00000000E+00  0.12689960E+02  0.50000000E+00  0.00000000E+00
  0.00000000E+00  0.00000000E+00  0.13666110E+02  0.50000000E+00  0.00000000E+00
  0.00000000E+00  0.00000000E+00  0.14642261E+02  0.50000000E+00  0.00000000E+00
  0.00000000E+00  0.00000000E+00  0.15618412E+02  0.50000000E+00  0.00000000E+00
  0.00000000E+00  0.00000000E+00  0.16594563E+02  0.50000000E+00  0.00000000E+00
  0.00000000E+00  0.00000000E+00  0.17570713E+02  0.50000000E+00  0.00000000E+00
  0.00000000E+00  0.00000000E+00  0.18546864E+02  0.50000000E+00  0.00000000E+00
  0.00000000E+00  0.00000000E+00  0.19523015E+02  0.50000000E+00  0.00000000E+00
  0.00000000E+00  0.00000000E+00  0.20499166E+02  0.49917208E+00 -0.24654407E-10
  0.00000000E+00  0.24878049E+01  0.00000000E+00  0.50000000E+00  0.00000000E+00
  0.00000000E+00  0.24878049E+01  0.97614789E+00  0.50000000E+00  0.00000000E+00
  0.00000000E+00  0.24878049E+01  0.19522958E+01  0.50000000E+00  0.00000000E+00
  0.00000000E+00  0.24878049E+01  0.29284437E+01  0.50000000E+00  0.00000000E+00
  0.00000000E+00  0.24878049E+01  0.39045916E+01  0.50000000E+00  0.00000000E+00
  0.00000000E+00  0.24878049E+01  0.48807394E+01  0.50000000E+00  0.00000000E+00
  0.00000000E+00  0.24878049E+01  0.58568873E+01  0.50000000E+00  0.00000000E+00
  0.00000000E+00  0.24878049E+01  0.68330352E+01  0.50000000E+00  0.00000000E+00
  0.00000000E+00  0.24878049E+01  0.78091831E+01  0.50000000E+00  0.00000000E+00
  0.00000000E+00  0.24878049E+01  0.87853310E+01  0.50000000E+00  0.00000000E+00
  0.00000000E+00  0.24878049E+01  0.97614789E+01  0.50000000E+00  0.00000000E+00
  0.00000000E+00  0.24878049E+01  0.10737627E+02  0.50000000E+00  0.00000000E+00
  0.00000000E+00  0.24878049E+01  0.11713775E+02  0.50000000E+00  0.00000000E+00
  0.00000000E+00  0.24878049E+01  0.12689923E+02  0.50000000E+00  0.00000000E+00
  0.00000000E+00  0.24878049E+01  0.13666070E+02  0.50000000E+00  0.00000000E+00
  0.00000000E+00  0.24878049E+01  0.14642218E+02  0.50000000E+00  0.00000000E+00
  0.00000000E+00  0.24878049E+01  0.15618366E+02  0.50000000E+00  0.00000000E+00
  0.00000000E+00  0.24878049E+01  0.16594514E+02  0.50000000E+00  0.00000000E+00
  0.00000000E+00  0.24878049E+01  0.17570662E+02  0.50000000E+00  0.00000000E+00
  0.00000000E+00  0.24878049E+01  0.18546810E+02  0.50000000E+00  0.00000000E+00
  0.00000000E+00  0.24878049E+01  0.19522958E+02  0.50000000E+00  0.00000000E+00
  0.00000000E+00  0.24878049E+01  0.20499106E+02  0.49911215E+00 -0.20186769E-10
  0.00000000E+00  0.49756098E+01  0.00000000E+00  0.50000000E+00  0.00000000E+00
  0.00000000E+00  0.49756098E+01  0.97615146E+00  0.50000000E+00  0.00000000E+00
  0.00000000E+00  0.49756098E+01  0.19523029E+01  0.50000000E+00  0.00000000E+00
  0.00000000E+00  0.49756098E+01  0.29284544E+01  0.50000000E+00  0.00000000E+00
  0.00000000E+00  0.49756098E+01  0.39046059E+01  0.50000000E+00  0.00000000E+00
  0.00000000E+00  0.49756098E+01  0.48807573E+01  0.50000000E+00  0.00000000E+00
  0.00000000E+00  0.49756098E+01  0.58569088E+01  0.50000000E+00  0.00000000E+00
  0.00000000E+00  0.49756098E+01  0.68330602E+01  0.50000000E+00  0.00000000E+00
  0.00000000E+00  0.49756098E+01  0.78092117E+01  0.50000000E+00  0.00000000E+00
  0.00000000E+00  0.49756098E+01  0.87853632E+01  0.50000000E+00  0.00000000E+00
  0.00000000E+00  0.49756098E+01  0.97615146E+01  0.50000000E+00  0.00000000E+00
  0.00000000E+00  0.49756098E+01  0.10737666E+02  0.50000000E+00  0.00000000E+00
  0.00000000E+00  0.49756098E+01  0.11713818E+02  0.50000000E+00  0.00000000E+00
  0.00000000E+00  0.49756098E+01  0.12689969E+02  0.50000000E+00  0.00000000E+00
  0.00000000E+00  0.49756098E+01  0.13666120E+02  0.50000000E+00  0.00000000E+00
  0.00000000E+00  0.49756098E+01  0.14642272E+02  0.50000000E+00  0.00000000E+00
  0.00000000E+00  0.49756098E+01  0.15618423E+02  0.50000000E+00  0.00000000E+00
  0.00000000E+00  0.49756098E+01  0.16594575E+02  0.50000000E+00  0.00000000E+00
  0.00000000E+00  0.49756098E+01  0.17570726E+02  0.50000000E+00  0.00000000E+00
  0.00000000E+00  0.49756098E+01  0.18546878E+02  0.50000000E+00  0.00000000E+00
  0.00000000E+00  0.49756098E+01  0.19523029E+02  0.50000000E+00  0.00000000E+00
  0.00000000E+00  0.49756098E+01  0.20499181E+02  0.49918671E+00 -0.12802153E-10
  0.00000000E+00  0.74634146E+01  0.00000000E+00  0.50000000E+00  0.00000000E+00
  0.00000000E+00  0.74634146E+01  0.97614858E+00  0.50000000E+00  0.00000000E+00
  0.00000000E+00  0.74634146E+01  0.19522972E+01  0.50000000E+00  0.00000000E+00
  0.00000000E+00  0.74634146E+01  0.29284457E+01  0.50000000E+00  0.00000000E+00
  0.00000000E+00  0.74634146E+01  0.39045943E+01  0.50000000E+00  0.00000000E+00
  0.00000000E+00  0.74634146E+01  0.48807429E+01  0.50000000E+00  0.00000000E+00
  0.00000000E+00  0.74634146E+01  0.58568915E+01  0.50000000E+00  0.00000000E+00
  0.00000000E+00  0.74634146E+01  0.68330401E+01  0.50000000E+00  0.00000000E+00
  0.00000000E+00  0.74634146E+01  0.78091886E+01  0.50000000E+00  0.00000000E+00
  0.00000000E+00  0.74634146E+01  0.87853372E+01  0.50000000E+00  0.00000000E+00
  0.00000000E+00  0.74634146E+01  0.97614858E+01  0.50000000E+00  0.00000000E+00
  0.00000000E+00  0.74634146E+01  0.10737634E+02  0.50000000E+00  0.00000000E+00
  0.00000000E+00  0.74634146E+01  0.11713783E+02  0.50000000E+00  0.00000000E+00
  0.00000000E+00  0.74634146E+01  0.12689932E+02  0.50000000E+00  0.00000000E+00
  0.00000000E+00  0.74634146E+01  0.13666080E+02  0.50000000E+00  0.00000000E+00
  0.00000000E+00  0.74634146E+01  0.14642229E+02  0.50000000E+00  0.00000000E+00
  0.00000000E+00  0.74634146E+01  0.15618377E+02  0.50000000E+00  0.00000000E+00
  0.00000000E+00  0.74634146E+01  0.16594526E+02  0.50000000E+00  0.00000000E+00
  0.00000000E+00  0.74634146E+01  0.17570674E+02  0.50000000E+00  0.00000000E+00
  0.00000000E+00  0.74634146E+01  0.18546823E+02  0.50000000E+00  0.00000000E+00
  0.00000000E+00  0.74634146E+01  0.19522972E+02  0.50000000E+00  0.00000000E+00
  0.00000000E+00  0.74634146E+01  0.20499120E+02  0.49912684E+00 -0.44941913E-11
  0.00000000E+00  0.99512195E+01  0.00000000E+00  0.50000000E+00  0.00000000E+00
  0.00000000E+00  0.99512195E+01  0.97612583E+00  0.50000000E+00  0.00000000E+00
  0.00000000E+00  0.99512195E+01  0.19522517E+01  0.50000000E+00  0.00000000E+00
  0.00000000E+00  0.99512195E+01  0.29283775E+01  0.50000000E+00  0.00000000E+00
  0.00000000E+00  0.99512195E+01  0.39045033E+01  0.50000000E+00  0.00000000E+00
  0.00000000E+00  0.99512195E+01  0.48806292E+01  0.50000000E+00  0.00000000E+00
  0.00000000E+00  0.99512195E+01  0.58567550E+01  0.50000000E+00  0.00000000E+00
  0.00000000E+00  0.99512195E+01  0.68328808E+01  0.50000000E+00  0.00000000E+00
  0.00000000E+00  0.99512195E+01  0.78090067E+01  0.50000000E+00  0.00000000E+00
  0.00000000E+00  0.99512195E+01  0.87851325E+01  0.50000000E+00  0.00000000E+00
  0.00000000E+00  0.99512195E+01  0.97612583E+01  0.50000000E+00  0.00000000E+00
  0.00000000E+00  0.99512195E+01  0.10737384E+02  0.50000000E+00  0.00000000E+00
  0.00000000E+00  0.99512195E+01  0.11713510E+02  0.50000000E+00  0.00000000E+00
  0.00000000E+00  0.99512195E+01  0.12689636E+02  0.50000000E+00  0.00000000E+00
  0.00000000E+00  0.99512195E+01  0.13665762E+02  0.50000000E+00  0.00000000E+00
  0.00000000E+00  0.99512195E+01  0.14641888E+02  0.50000000E+00  0.00000000E+00
  0.00000000E+00  0.99512195E+01  0.15618013E+02  0.50000000E+00  0.00000000E+00
  0.00000000E+00  0.99512195E+01  0.16594139E+02  0.50000000E+00  0.00000000E+00
  0.00000000E+00  0.99512195E+01  0.17570265E+02  0.50000000E+00  0.00000000E+00
  0.00000000E+00  0.99512195E+01  0.18546391E+02  0.50000000E+00  0.00000000E+00
  0.00000000E+00  0.99512195E+01  0.19522517E+02  0.50000000E+00  0.00000000E+00
  0.00000000E+00  0.99512195E+01  0.20498643E+02  0.49865221E+00  0.86204141E-12
  0.00000000E+00  0.12439024E+02  0.00000000E+00  0.50000000E+00  0.00000000E+00
  0.00000000E+00  0.12439024E+02  0.97611420E+00  0.50000000E+00  0.00000000E+00
  0.00000000E+00  0.12439024E+02  0.19522284E+01  0.50000000E+00  0.00000000E+00
  0.00000000E+00  0.12439024E+02  0.29283426E+01  0.50000000E+00  0.00000000E+00
  0.00000000E+00  0.12439024E+02  0.39044568E+01  0.50000000E+00  0.00000000E+00
  0.00000000E+00  0.12439024E+02  0.48805710E+01  0.50000000E+00  0.00000000E+00
  0.00000000E+00  0.12439024E+02  0.58566852E+01  0.50000000E+00  0.00000000E+00
  0.00000000E+00  0.12439024E+02  0.68327994E+01  0.50000000E+00  0.00000000E+00
  0.00000000E+00  0.12439024E+02  0.78089136E+01  0.50000000E+00  0.00000000E+00
  0.00000000E+00  0.12439024E+02  0.87850278E+01  0.50000000E+00  0.00000000E+00
  0.00000000E+00  0.12439024E+02  0.97611420E+01  0.50000000E+00  0.00000000E+00
  0.00000000E+00  0.12439024E+02  0.10737256E+02  0.50000000E+00  0.00000000E+00
  0.00000000E+00  0.12439024E+02  0.11713370E+02  0.50000000E+00  0.00000000E+00
  0.00000000E+00  0.12439024E+02  0.12689485E+02  0.50000000E+00  0.00000000E+00
  0.00000000E+00  0.12439024E+02  0.13665599E+02  0.50000000E+00  0.00000000E+00
  0.00000000E+00  0.12439024E+02  0.14641713E+02  0.50000000E+00  0.00000000E+00
  0.00000000E+00  0.12439024E+02  0.15617827E+02  0.50000000E+00  0.00000000E+00
  0.00000000E+00  0.12439024E+02  0.16593941E+02  0.50000000E+00  0.00000000E+00
  0.00000000E+00  0.12439024E+02  0.17570056E+02  0.50000000E+00  0.00000000E+00
  0.00000000E+00  0.12439024E+02  0.18546170E+02  0.50000000E+00  0.00000000E+00
  0.00000000E+00  0.12439024E+02  0.19522284E+02  0.50000000E+00  0.00000000E+00
  0.00000000E+00  0.12439024E+02  0.20498398E+02  0.49840937E+00  0.57058684E-11
  0.00000000E+00  0.14926829E+02  0.00000000E+00  0.50000000E+00  0.00000000E+00
  0.00000000E+00  0.14926829E+02  0.97611794E+00  0.50000000E+00  0.00000000E+00
  0.00000000E+00  0.14926829E+02  0.19522359E+01  0.50000000E+00  0.00000000E+00
  0.00000000E+00  0.14926829E+02  0.29283538E+01  0.50000000E+00  0.00000000E+00
  0.00000000E+00  0.14926829E+02  0.39044718E+01  0.50000000E+00  0.00000000E+00
  0.00000000E+00  0.14926829E+02  0.48805897E+01  0.50000000E+00  0.00000000E+00
  0.00000000E+00  0.14926829E+02  0.58567077E+01  0.50000000E+00  0.00000000E+00
  0.00000000E+00  0.14926829E+02  0.68328256E+01  0.50000000E+00  0.00000000E+00
  0.00000000E+00  0.14926829E+02  0.78089436E+01  0.50000000E+00  0.00000000E+00
  0.00000000E+00  0.14926829E+02  0.87850615E+01  0.50000000E+00  0.00000000E+00
  0.00000000E+00  0.14926829E+02  0.97611794E+01  0.50000000E+00  0.00000000E+00
  0.00000000E+00  0.14926829E+02  0.10737297E+02  0.50000000E+00  0.00000000E+00
  0.00000000E+00  0.14926829E+02  0.11713415E+02  0.50000000E+00  0.00000000E+00
  0.00000000E+00  0.14926829E+02  0.12689533E+02  0.50000000E+00  0.00000000E+00
  0.00000000E+00  0.14926829E+02  0.13665651E+02  0.50000000E+00  0.00000000E+00
  0.00000000E+00  0.14926829E+02  0.14641769E+02  0.50000000E+00  0.00000000E+00
  0.00000000E+00  0.14926829E+02  0.15617887E+02  0.50000000E+00  0.00000000E+00
  0.00000000E+00  0.14926829E+02  0.16594005E+02  0.50000000E+00  0.00000000E+00
  0.00000000E+00  0.14926829E+02  0.17570123E+02  0.50000000E+00  0.00000000E+00
  0.00000000E+00  0.14926829E+02  0.18546241E+02  0.50000000E+00  0.00000000E+00
  0.00000000E+00  0.14926829E+02  0.19522359E+02  0.50000000E+00  0.00000000E+00
  0.00000000E+00  0.14926829E+02  0.20498477E+02  0.49848827E+00  0.73382035E-11
  0.00000000E+00  0.17414634E+02  0.00000000E+00  0.50000000E+00  0.00000000E+00
  0.00000000E+00  0.17414634E+02  0.97612591E+00  0.50000000E+00  0.00000000E+00
  0.00000000E+00  0.17414634E+02  0.19522518E+01  0.50000000E+00  0.00000000E+00
  0.00000000E+00  0.17414634E+02  0.29283777E+01  0.50000000E+00  0.00000000E+00
  0.00000000E+00  0.17414634E+02  0.39045037E+01  0.50000000E+00  0.00000000E+00
  0.00000000E+00  0.17414634E+02  0.48806296E+01  0.50000000E+00  0.00000000E+00
  0.00000000E+00  0.17414634E+02  0.58567555E+01  0.50000000E+00  0.00000000E+00
  0.00000000E+00  0.17414634E+02  0.68328814E+01  0.50000000E+00  0.00000000E+00
  0.00000000E+00  0.17414634E+02  0.78090073E+01  0.50000000E+00  0.00000000E+00
  0.00000000E+00  0.17414634E+02  0.87851332E+01  0.50000000E+00  0.00000000E+00
  0.00000000E+00  0.17414634E+02  0.97612591E+01  0.50000000E+00  0.00000000E+00
  0.00000000E+00  0.17414634E+02  0.10737385E+02  0.50000000E+00  0.00000000E+00
  0.00000000E+00  0.17414634E+02  0.11713511E+02  0.50000000E+00  0.00000000E+00
  0.00000000E+00  0.17414634E+02  0.12689637E+02  0.50000000E+00  0.00000000E+00
  0.00000000E+00  0.17414634E+02  0.13665763E+02  0.50000000E+00  0.00000000E+00
  0.00000000E+00  0.17414634E+02  0.14641889E+02  0.50000000E+00  0.00000000E+00
  0.00000000E+00  0.17414634E+02  0.15618015E+02  0.50000000E+00  0.00000000E+00
  0.00000000E+00  0.17414634E+02  0.16594141E+02  0.50000000E+00  0.00000000E+00
  0.00000000E+00  0.17414634E+02  0.17570266E+02  0.50000000E+00  0.00000000E+00
  0.00000000E+00  0.17414634E+02  0.18546392E+02  0.50000000E+00  0.00000000E+00
  0.00000000E+00  0.17414634E+02  0.19522518E+02  0.50000000E+00  0.00000000E+00
  0.00000000E+00  0.17414634E+02  0.20498644E+02  0.49865520E+00  0.11255344E-10
  0.00000000E+00  0.19902439E+02  0.00000000E+00  0.50000000E+00  0.00000000E+00
  0.00000000E+00  0.19902439E+02  0.97611195E+00  0.50000000E+00  0.00000000E+00
  0.00000000E+00  0.19902439E+02  0.19522239E+01  0.50000000E+00  0.00000000E+00
  0.00000000E+00  0.19902439E+02  0.29283359E+01  0.50000000E+00  0.00000000E+00
  0.00000000E+00  0.19902439E+02  0.39044478E+01  0.50000000E+00  0.00000000E+00
  0.00000000E+00  0.19902439E+02  0.48805598E+01  0.50000000E+00  0.00000000E+00
  0.00000000E+00  0.19902439E+02  0.58566717E+01  0.50000000E+00  0.00000000E+00
  0.00000000E+00  0.19902439E+02  0.68327837E+01  0.50000000E+00  0.00000000E+00
  0.00000000E+00  0.19902439E+02  0.78088956E+01  0.50000000E+00  0.00000000E+00
  0.00000000E+00  0.19902439E+02  0.87850076E+01  0.50000000E+00  0.00000000E+00
  0.00000000E+00  0.19902439E+02  0.97611195E+01  0.50000000E+00  0.00000000E+00
  0.00000000E+00  0.19902439E+02  0.10737231E+02  0.50000000E+00  0.00000000E+00
  0.00000000E+00  0.19902439E+02  0.11713343E+02  0.50000000E+00  0.00000000E+00
  0.00000000E+00  0.19902439E+02  0.12689455E+02  0.50000000E+00  0.00000000E+00
  0.00000000E+00  0.19902439E+02  0.13665567E+02  0.50000000E+00  0.00000000E+00
  0.00000000E+00  0.19902439E+02  0.14641679E+02  0.50000000E+00  0.00000000E+00
  0.00000000E+00  0.19902439E+02  0.15617791E+02  0.50000000E+00  0.00000000E+00
  0.00000000E+00  0.19902439E+02  0.16593903E+02  0.50000000E+00  0.00000000E+00
  0.00000000E+00  0.19902439E+02  0.17570015E+02  0.50000000E+00  0.00000000E+00
  0.00000000E+00  0.19902439E+02  0.18546127E+02  0.50000000E+00  0.00000000E+00
  0.00000000E+00  0.19902439E+02  0.19522239E+02  0.50000000E+00  0.00000000E+00
  0.00000000E+00  0.19902439E+02  0.20498351E+02  0.49836260E+00  0.14252372E-10
  0.00000000E+00  0.22390244E+02  0.00000000E+00  0.50000000E+00  0.00000000E+00
  0.00000000E+00  0.22390244E+02  0.97611315E+00  0.50000000E+00  0.00000000E+00
  0.00000000E+00  0.22390244E+02  0.19522263E+01  0.50000000E+00  0.00000000E+00
  0.00000000E+00  0.22390244E+02  0.29283394E+01  0.50000000E+00  0.00000000E+00
  0.00000000E+00  0.22390244E+02  0.39044526E+01  0.50000000E+00  0.00000000E+00
  0.00000000E+00  0.22390244E+02  0.48805657E+01  0.50000000E+00  0.00000000E+00
  0.00000000E+00  0.22390244E+02  0.58566789E+01  0.50000000E+00  0.00000000E+00
  0.00000000E+00  0.22390244E+02  0.68327920E+01  0.50000000E+00  0.00000000E+00
  0.00000000E+00  0.22390244E+02  0.78089052E+01  0.50000000E+00  0.00000000E+00
  0.00000000E+00  0.22390244E+02  0.87850183E+01  0.50000000E+00  0.00000000E+00
  0.00000000E+00  0.22390244E+02  0.97611315E+01  0.50000000E+00  0.00000000E+00
  0.00000000E+00  0.22390244E+02  0.10737245E+02  0.50000000E+00  0.00000000E+00
  0.00000000E+00  0.22390244E+02  0.11713358E+02  0.50000000E+00  0.00000000E+00
  0.00000000E+00  0.22390244E+02  0.12689471E+02  0.50000000E+00  0.00000000E+00
  0.00000000E+00  0.22390244E+02  0.13665584E+02  0.50000000E+00  0.00000000E+00
  0.00000000E+00  0.22390244E+02  0.14641697E+02  0.50000000E+00  0.00000000E+00
  0.00000000E+00  0.22390244E+02  0.15617810E+02  0.50000000E+00  0.00000000E+00
  0.00000000E+00  0.22390244E+02  0.16593924E+02  0.50000000E+00  0.00000000E+00
  0.00000000E+00  0.22390244E+02  0.17570037E+02  0.50000000E+00  0.00000000E+00
  0.00000000E+00  0.22390244E+02  0.18546150E+02  0.50000000E+00  0.00000000E+00
  0.00000000E+00  0.22390244E+02  0.19522263E+02  0.50000000E+00  0.00000000E+00
  0.00000000E+00  0.22390244E+02  0.20498376E+02  0.49838754E+00  0.12054668E-10
  0.00000000E+00  0.24878049E+02  0.00000000E+00  0.50000000E+00  0.00000000E+00
  0.00000000E+00  0.24878049E+02  0.97612151E+00  0.50000000E+00  0.00000000E+00
  0.00000000E+00  0.24878049E+02  0.19522430E+01  0.50000000E+00  0.00000000E+00
  0.00000000E+00  0.24878049E+02  0.29283645E+01  0.50000000E+00  0.00000000E+00
  0.00000000E+00  0.24878049E+02  0.39044860E+01  0.50000000E+00  0.00000000E+00
  0.00000000E+00  0.24878049E+02  0.48806075E+01  0.50000000E+00  0.00000000E+00
  0.00000000E+00  0.24878049E+02  0.58567290E+01  0.50000000E+00  0.00000000E+00
  0.00000000E+00  0.24878049E+02  0.68328506E+01  0.50000000E+00  0.00000000E+00
  0.00000000E+00  0.24878049E+02  0.78089721E+01  0.50000000E+00  0.00000000E+00
  0.00000000E+00  0.24878049E+02  0.87850936E+01  0.50000000E+00  0.00000000E+00
  0.00000000E+00  0.24878049E+02  0.97612151E+01  0.50000000E+00  0.00000000E+00
  0.00000000E+00  0.24878049E+02  0.10737337E+02  0.50000000E+00  0.00000000E+00
  0.00000000E+00  0.24878049E+02  0.11713458E+02  0.50000000E+00  0.00000000E+00
  0.00000000E+00  0.24878049E+02  0.12689580E+02  0.50000000E+00  0.00000000E+00
  0.00000000E+00  0.24878049E+02  0.13665701E+02  0.50000000E+00  0.00000000E+00
  0.00000000E+00  0.24878049E+02  0.14641823E+02  0.50000000E+00  0.00000000E+00
  0.00000000E+00  0.24878049E+02  0.15617944E+02  0.50000000E+00  0.00000000E+00
  0.00000000E+00  0.24878049E+02  0.16594066E+02  0.50000000E+00  0.00000000E+00
  0.00000000E+00  0.24878049E+02  0.17570187E+02  0.50000000E+00  0.00000000E+00
  0.00000000E+00  0.24878049E+02  0.18546309E+02  0.50000000E+00  0.00000000E+00
  0.00000000E+00  0.24878049E+02  0.19522430E+02  0.50000000E+00  0.00000000E+00
  0.00000000E+00  0.24878049E+02  0.20498552E+02  0.49856145E+00  0.70943534E-11
  0.00000000E+00  0.27365854E+02  0.00000000E+00  0.50000000E+00  0.00000000E+00
  0.00000000E+00  0.27365854E+02  0.97612640E+00  0.50000000E+00  0.00000000E+00
  0.00000000E+00  0.27365854E+02  0.19522528E+01  0.50000000E+00  0.00000000E+00
  0.00000000E+00  0.27365854E+02  0.29283792E+01  0.50000000E+00  0.00000000E+00
  0.00000000E+00  0.27365854E+02  0.39045056E+01  0.50000000E+00  0.00000000E+00
  0.00000000E+00  0.27365854E+02  0.48806320E+01  0.50000000E+00  0.00000000E+00
  0.00000000E+00  0.27365854E+02  0.58567584E+01  0.50000000E+00  0.00000000E+00
  0.00000000E+00  0.27365854E+02  0.68328848E+01  0.50000000E+00  0.00000000E+00
  0.00000000E+00  0.27365854E+02  0.78090112E+01  0.50000000E+00  0.00000000E+00
  0.00000000E+00  0.27365854E+02  0.87851376E+01  0.50000000E+00  0.00000000E+00
  0.00000000E+00  0.27365854E+02  0.97612640E+01  0.50000000E+00  0.00000000E+00
  0.00000000E+00  0.27365854E+02  0.10737390E+02  0.50000000E+00  0.00000000E+00
  0.00000000E+00  0.27365854E+02  0.11713517E+02  0.50000000E+00  0.00000000E+00
  0.00000000E+00  0.27365854E+02  0.12689643E+02  0.50000000E+00  0.00000000E+00
  0.00000000E+00  0.27365854E+02  0.13665770E+02  0.50000000E+00  0.00000000E+00
  0.00000000E+00  0.27365854E+02  0.14641896E+02  0.50000000E+00  0.00000000E+00
  0.00000000E+00  0.27365854E+02  0.15618022E+02  0.50000000E+00  0.00000000E+00
  0.00000000E+00  0.27365854E+02  0.16594149E+02  0.50000000E+00  0.00000000E+00
  0.00000000E+00  0.27365854E+02  0.17570275E+02  0.50000000E+00  0.00000000E+00
  0.00000000E+00  0.27365854E+02  0.18546402E+02  0.50000000E+00  0.00000000E+00
  0.00000000E+00  0.27365854E+02  0.19522528E+02  0.50000000E+00  0.00000000E+00
  0.00000000E+00  0.27365854E+02  0.20498654E+02  0.49866313E+00 -0.22748640E-11
  0.00000000E+00  0.29853659E+02  0.00000000E+00  0.50000000E+00  0.00000000E+00
  0.00000000E+00  0.29853659E+02  0.97613344E+00  0.50000000E+00  0.00000000E+00
  0.00000000E+00  0.29853659E+02  0.19522669E+01  0.50000000E+00  0.00000000E+00
  0.00000000E+00  0.29853659E+02  0.29284003E+01  0.50000000E+00  0.00000000E+00
  0.00000000E+00  0.29853659E+02  0.39045338E+01  0.50000000E+00  0.00000000E+00
  0.00000000E+00  0.29853659E+02  0.48806672E+01  0.50000000E+00  0.00000000E+00
  0.00000000E+00  0.29853659E+02  0.58568007E+01  0.50000000E+00  0.00000000E+00
  0.00000000E+00  0.29853659E+02  0.68329341E+01  0.50000000E+00  0.00000000E+00
  0.00000000E+00  0.29853659E+02  0.78090675E+01  0.50000000E+00  0.00000000E+00
  0.00000000E+00  0.29853659E+02  0.87852010E+01  0.50000000E+00  0.00000000E+00
  0.00000000E+00  0.29853659E+02  0.97613344E+01  0.50000000E+00  0.00000000E+00
  0.00000000E+00  0.29853659E+02  0.10737468E+02  0.50000000E+00  0.00000000E+00
  0.00000000E+00  0.29853659E+02  0.11713601E+02  0.50000000E+00  0.00000000E+00
  0.00000000E+00  0.29853659E+02  0.12689735E+02  0.50000000E+00  0.00000000E+00
  0.00000000E+00  0.29853659E+02  0.13665868E+02  0.50000000E+00  0.00000000E+00
  0.00000000E+00  0.29853659E+02  0.14642002E+02  0.50000000E+00  0.00000000E+00
  0.00000000E+00  0.29853659E+02  0.15618135E+02  0.50000000E+00  0.00000000E+00
  0.00000000E+00  0.29853659E+02  0.16594269E+02  0.50000000E+00  0.00000000E+00
  0.00000000E+00  0.29853659E+02  0.17570402E+02  0.50000000E+00  0.00000000E+00
  0.00000000E+00  0.29853659E+02  0.18546535E+02  0.50000000E+00  0.00000000E+00
  0.00000000E+00  0.29853659E+02  0.19522669E+02  0.50000000E+00  0.00000000E+00
  0.00000000E+00  0.29853659E+02  0.20498802E+02  0.49880941E+00 -0.19899277E-10
  0.00000000E+00  0.32341463E+02  0.00000000E+00  0.50000000E+00  0.00000000E+00
  0.00000000E+00  0.32341463E+02  0.97614192E+00  0.50000000E+00  0.00000000E+00
  0.00000000E+00  0.32341463E+02  0.19522838E+01  0.50000000E+00  0.00000000E+00
  0.00000000E+00  0.32341463E+02  0.29284258E+01  0.50000000E+00  0.00000000E+00
  0.00000000E+00  0.32341463E+02  0.39045677E+01  0.50000000E+00  0.00000000E+00
  0.00000000E+00  0.32341463E+02  0.48807096E+01  0.50000000E+00  0.00000000E+00
  0.00000000E+00  0.32341463E+02  0.58568515E+01  0.50000000E+00  0.00000000E+00
  0.00000000E+00  0.32341463E+02  0.68329934E+01  0.50000000E+00  0.00000000E+00
  0.00000000E+00  0.32341463E+02  0.78091354E+01  0.50000000E+00  0.00000000E+00
  0.00000000E+00  0.32341463E+02  0.87852773E+01  0.50000000E+00  0.00000000E+00
  0.00000000E+00  0.32341463E+02  0.97614192E+01  0.50000000E+00  0.00000000E+00
  0.00000000E+00  0.32341463E+02  0.10737561E+02  0.50000000E+00  0.00000000E+00
  0.00000000E+00  0.32341463E+02  0.11713703E+02  0.50000000E+00  0.00000000E+00
  0.00000000E+00  0.32341463E+02  0.12689845E+02  0.50000000E+00  0.00000000E+00
  0.00000000E+00  0.32341463E+02  0.13665987E+02  0.50000000E+00  0.00000000E+00
  0.00000000E+00  0.32341463E+02  0.14642129E+02  0.50000000E+00  0.00000000E+00
  0.00000000E+00  0.32341463E+02  0.15618271E+02  0.50000000E+00  0.00000000E+00
  0.00000000E+00  0.32341463E+02  0.16594413E+02  0.50000000E+00  0.00000000E+00
  0.00000000E+00  0.32341463E+02  0.17570555E+02  0.50000000E+00  0.00000000E+00
  0.00000000E+00  0.32341463E+02  0.18546696E+02  0.50000000E+00  0.00000000E+00
  0.00000000E+00  0.32341463E+02  0.19522838E+02  0.50000000E+00  0.00000000E+00
  0.00000000E+00  0.32341463E+02  0.20498980E+02  0.49898626E+00 -0.38511082E-10
  0.00000000E+00  0.34829268E+02  0.00000000E+00  0.50000000E+00  0.00000000E+00
  0.00000000E+00  0.34829268E+02  0.97615523E+00  0.50000000E+00  0.00000000E+00
  0.00000000E+00  0.34829268E+02  0.19523105E+01  0.50000000E+00  0.00000000E+00
  0.00000000E+00  0.34829268E+02  0.29284657E+01  0.50000000E+00  0.00000000E+00
  0.00000000E+00  0.34829268E+02  0.39046209E+01  0.50000000E+00  0.00000000E+00
  0.00000000E+00  0.34829268E+02  0.48807762E+01  0.50000000E+00  0.00000000E+00
  0.00000000E+00  0.34829268E+02  0.58569314E+01  0.50000000E+00  0.00000000E+00
  0.00000000E+00  0.34829268E+02  0.68330866E+01  0.50000000E+00  0.00000000E+00
  0.00000000E+00  0.34829268E+02  0.78092418E+01  0.50000000E+00  0.00000000E+00
  0.00000000E+00  0.34829268E+02  0.87853971E+01  0.50000000E+00  0.00000000E+00
  0.00000000E+00  0.34829268E+02  0.97615523E+01  0.50000000E+00  0.00000000E+00
  0.00000000E+00  0.34829268E+02  0.10737708E+02  0.50000000E+00  0.00000000E+00
  0.00000000E+00  0.34829268E+02  0.11713863E+02  0.50000000E+00  0.00000000E+00
  0.00000000E+00  0.34829268E+02  0.12690018E+02  0.50000000E+00  0.00000000E+00
  0.00000000E+00  0.34829268E+02  0.13666173E+02  0.50000000E+00  0.00000000E+00
  0.00000000E+00  0.34829268E+02  0.14642328E+02  0.50000000E+00  0.00000000E+00
  0.00000000E+00  0.34829268E+02  0.15618484E+02  0.50000000E+00  0.00000000E+00
  0.00000000E+00  0.34829268E+02  0.16594639E+02  0.50000000E+00  0.00000000E+00
  0.00000000E+00  0.34829268E+02  0.17570794E+02  0.50000000E+00  0.00000000E+00
  0.00000000E+00  0.34829268E+02  0.18546949E+02  0.50000000E+00  0.00000000E+00
  0.00000000E+00  0.34829268E+02  0.19523105E+02  0.50000000E+00  0.00000000E+00
  0.00000000E+00  0.34829268E+02  0.20499260E+02  0.49926434E+00 -0.71574423E-10
  0.00000000E+00  0.37317073E+02  0.00000000E+00  0.50000000E+00  0.00000000E+00
  0.00000000E+00  0.37317073E+02  0.97616226E+00  0.50000000E+00  0.00000000E+00
  0.00000000E+00  0.37317073E+02  0.19523245E+01  0.50000000E+00  0.00000000E+00
  0.00000000E+00  0.37317073E+02  0.29284868E+01  0.50000000E+00  0.00000000E+00
  0.00000000E+00  0.37317073E+02  0.39046490E+01  0.50000000E+00  0.00000000E+00
  0.00000000E+00  0.37317073E+02  0.48808113E+01  0.50000000E+00  0.00000000E+00
  0.00000000E+00  0.37317073E+02  0.58569735E+01  0.50000000E+00  0.00000000E+00
  0.00000000E+00  0.37317073E+02  0.68331358E+01  0.50000000E+00  0.00000000E+00
  0.00000000E+00  0.37317073E+02  0.78092980E+01  0.50000000E+00  0.00000000E+00
  0.00000000E+00  0.37317073E+02  0.87854603E+01  0.50000000E+00  0.00000000E+00
  0.00000000E+00  0.37317073E+02  0.97616226E+01  0.50000000E+00  0.00000000E+00
  0.00000000E+00  0.37317073E+02  0.10737785E+02  0.50000000E+00  0.00000000E+00
  0.00000000E+00  0.37317073E+02  0.11713947E+02  0.50000000E+00  0.00000000E+00
  0.00000000E+00  0.37317073E+02  0.12690109E+02  0.50000000E+00  0.00000000E+00
  0.00000000E+00  0.37317073E+02  0.13666272E+02  0.50000000E+00  0.00000000E+00
  0.00000000E+00  0.37317073E+02  0.14642434E+02  0.50000000E+00  0.00000000E+00
  0.00000000E+00  0.37317073E+02  0.15618596E+02  0.50000000E+00  0.00000000E+00
  0.00000000E+00  0.37317073E+02  0.16594758E+02  0.50000000E+00  0.00000000E+00
  0.00000000E+00  0.37317073E+02  0.17570921E+02  0.50000000E+00  0.00000000E+00
  0.00000000E+00  0.37317073E+02  0.18547083E+02  0.50000000E+00  0.00000000E+00
  0.00000000E+00  0.37317073E+02  0.19523245E+02  0.50000000E+00  0.00000000E+00
  0.00000000E+00  0.37317073E+02  0.20499407E+02  0.49941090E+00 -0.95890855E-10
  0.00000000E+00  0.39804878E+02  0.00000000E+00  0.50000000E+00  0.00000000E+00
  0.00000000E+00  0.39804878E+02  0.97616431E+00  0.50000000E+00  0.00000000E+00
  0.00000000E+00  0.39804878E+02  0.19523286E+01  0.50000000E+00  0.00000000E+00
  0.00000000E+00  0.39804878E+02  0.29284929E+01  0.50000000E+00  0.00000000E+00
  0.00000000E+00  0.39804878E+02  0.39046573E+01  0.50000000E+00  0.00000000E+00
  0.00000000E+00  0.39804878E+02  0.48808216E+01  0.50000000E+00  0.00000000E+00
  0.00000000E+00  0.39804878E+02  0.58569859E+01  0.50000000E+00  0.00000000E+00
  0.00000000E+00  0.39804878E+02  0.68331502E+01  0.50000000E+00  0.00000000E+00
  0.00000000E+00  0.39804878E+02  0.78093145E+01  0.50000000E+00  0.00000000E+00
  0.00000000E+00  0.39804878E+02  0.87854788E+01  0.50000000E+00  0.00000000E+00
  0.00000000E+00  0.39804878E+02  0.97616431E+01  0.50000000E+00  0.00000000E+00
  0.00000000E+00  0.39804878E+02  0.10737807E+02  0.50000000E+00  0.00000000E+00
  0.00000000E+00  0.39804878E+02  0.11713972E+02  0.50000000E+00  0.00000000E+00
  0.00000000E+00  0.39804878E+02  0.12690136E+02  0.50000000E+00  0.00000000E+00
  0.00000000E+00  0.39804878E+02  0.13666300E+02  0.50000000E+00  0.00000000E+00
  0.00000000E+00  0.39804878E+02  0.14642465E+02  0.50000000E+00  0.00000000E+00