title="2d K section "
variables="x","z","Kx","logKx","Kz","logKz","porosity"
zone i=    22, j=    42,T="Initial K at t=0"
   0.0000000E+00   0.0000000E+00   0.5790539E-04  -0.4237281E+01   0.5790539E-04  -0.4237281E+01   0.3000000E+00
   0.0000000E+00   0.9761905E+00   0.7770430E-04  -0.4109555E+01   0.7770430E-04  -0.4109555E+01   0.3000000E+00
   0.0000000E+00   0.1952381E+01   0.1027101E-03  -0.3988387E+01   0.1027101E-03  -0.3988387E+01   0.3000000E+00
   0.0000000E+00   0.2928571E+01   0.1270792E-03  -0.3895926E+01   0.1270792E-03  -0.3895926E+01   0.3000000E+00
   0.0000000E+00   0.3904762E+01   0.9572797E-04  -0.4018961E+01   0.9572797E-04  -0.4018961E+01   0.3000000E+00
   0.0000000E+00   0.4880952E+01   0.2041818E-03  -0.3689983E+01   0.2041818E-03  -0.3689983E+01   0.3000000E+00
   0.0000000E+00   0.5857143E+01   0.5238973E-04  -0.4280754E+01   0.5238973E-04  -0.4280754E+01   0.3000000E+00
   0.0000000E+00   0.6833333E+01   0.1556322E-04  -0.4807900E+01   0.1556322E-04  -0.4807900E+01   0.3000000E+00
   0.0000000E+00   0.7809524E+01   0.2456962E-04  -0.4609602E+01   0.2456962E-04  -0.4609602E+01   0.3000000E+00
   0.0000000E+00   0.8785714E+01   0.2750893E-04  -0.4560526E+01   0.2750893E-04  -0.4560526E+01   0.3000000E+00
   0.0000000E+00   0.9761905E+01   0.6743138E-04  -0.4171138E+01   0.6743138E-04  -0.4171138E+01   0.3000000E+00
   0.0000000E+00   0.1073810E+02   0.4007152E-07  -0.7397164E+01   0.4007152E-07  -0.7397164E+01   0.3000000E+00
   0.0000000E+00   0.1171429E+02   0.1289921E-07  -0.7889437E+01   0.1289921E-07  -0.7889437E+01   0.3000000E+00
   0.0000000E+00   0.1269048E+02   0.4389348E-07  -0.7357600E+01   0.4389348E-07  -0.7357600E+01   0.3000000E+00
   0.0000000E+00   0.1366667E+02   0.2043739E-07  -0.7689575E+01   0.2043739E-07  -0.7689575E+01   0.3000000E+00
   0.0000000E+00   0.1464286E+02   0.4151131E-07  -0.7381834E+01   0.4151131E-07  -0.7381834E+01   0.3000000E+00
   0.0000000E+00   0.1561905E+02   0.7770430E-04  -0.4109555E+01   0.7770430E-04  -0.4109555E+01   0.3000000E+00
   0.0000000E+00   0.1659524E+02   0.9361687E-04  -0.4028646E+01   0.9361687E-04  -0.4028646E+01   0.3000000E+00
   0.0000000E+00   0.1757143E+02   0.1454468E-03  -0.3837296E+01   0.1454468E-03  -0.3837296E+01   0.3000000E+00
   0.0000000E+00   0.1854762E+02   0.1069873E-03  -0.3970668E+01   0.1069873E-03  -0.3970668E+01   0.3000000E+00
   0.0000000E+00   0.1952381E+02   0.7331832E-04  -0.4134787E+01   0.7331832E-04  -0.4134787E+01   0.3000000E+00
   0.0000000E+00   0.2050000E+02   0.7331832E-04  -0.4134787E+01   0.7331832E-04  -0.4134787E+01   0.3000000E+00
   0.2487805E+01   0.0000000E+00   0.4359361E-04  -0.4360577E+01   0.4359361E-04  -0.4360577E+01   0.3000000E+00
   0.2487805E+01   0.9761905E+00   0.7919479E-04  -0.4101303E+01   0.7919479E-04  -0.4101303E+01   0.3000000E+00
   0.2487805E+01   0.1952381E+01   0.1767278E-03  -0.3752695E+01   0.1767278E-03  -0.3752695E+01   0.3000000E+00
   0.2487805E+01   0.2928571E+01   0.1061455E-03  -0.3974099E+01   0.1061455E-03  -0.3974099E+01   0.3000000E+00
   0.2487805E+01   0.3904762E+01   0.1415723E-03  -0.3849022E+01   0.1415723E-03  -0.3849022E+01   0.3000000E+00
   0.2487805E+01   0.4880952E+01   0.3124707E-03  -0.3505191E+01   0.3124707E-03  -0.3505191E+01   0.3000000E+00
   0.2487805E+01   0.5857143E+01   0.9791606E-04  -0.4009146E+01   0.9791606E-04  -0.4009146E+01   0.3000000E+00
   0.2487805E+01   0.6833333E+01   0.2221595E-04  -0.4653335E+01   0.2221595E-04  -0.4653335E+01   0.3000000E+00
   0.2487805E+01   0.7809524E+01   0.2485877E-04  -0.4604520E+01   0.2485877E-04  -0.4604520E+01   0.3000000E+00
   0.2487805E+01   0.8785714E+01   0.1775755E-04  -0.4750617E+01   0.1775755E-04  -0.4750617E+01   0.3000000E+00
   0.2487805E+01   0.9761905E+01   0.2473479E-04  -0.4606692E+01   0.2473479E-04  -0.4606692E+01   0.3000000E+00
   0.2487805E+01   0.1073810E+02   0.7393978E-08  -0.8131122E+01   0.7393978E-08  -0.8131122E+01   0.3000000E+00
   0.2487805E+01   0.1171429E+02   0.1746268E-07  -0.7757889E+01   0.1746268E-07  -0.7757889E+01   0.3000000E+00
   0.2487805E+01   0.1269048E+02   0.7584949E-08  -0.8120047E+01   0.7584949E-08  -0.8120047E+01   0.3000000E+00
   0.2487805E+01   0.1366667E+02   0.1034254E-07  -0.7985373E+01   0.1034254E-07  -0.7985373E+01   0.3000000E+00
   0.2487805E+01   0.1464286E+02   0.5468069E-04  -0.4262166E+01   0.5468069E-04  -0.4262166E+01   0.3000000E+00
   0.2487805E+01   0.1561905E+02   0.4967544E-04  -0.4303858E+01   0.4967544E-04  -0.4303858E+01   0.3000000E+00
   0.2487805E+01   0.1659524E+02   0.4656320E-04  -0.4331957E+01   0.4656320E-04  -0.4331957E+01   0.3000000E+00
   0.2487805E+01   0.1757143E+02   0.1151586E-03  -0.3938704E+01   0.1151586E-03  -0.3938704E+01   0.3000000E+00
   0.2487805E+01   0.1854762E+02   0.1935064E-03  -0.3713305E+01   0.1935064E-03  -0.3713305E+01   0.3000000E+00
   0.2487805E+01   0.1952381E+02   0.9211249E-04  -0.4035681E+01   0.9211249E-04  -0.4035681E+01   0.3000000E+00
   0.2487805E+01   0.2050000E+02   0.9211249E-04  -0.4035681E+01   0.9211249E-04  -0.4035681E+01   0.3000000E+00
   0.4975610E+01   0.0000000E+00   0.3792500E-04  -0.4421074E+01   0.3792500E-04  -0.4421074E+01   0.3000000E+00
   0.4975610E+01   0.9761905E+00   0.4942768E-04  -0.4306030E+01   0.4942768E-04  -0.4306030E+01   0.3000000E+00
   0.4975610E+01   0.1952381E+01   0.1128558E-03  -0.3947476E+01   0.1128558E-03  -0.3947476E+01   0.3000000E+00
   0.4975610E+01   0.2928571E+01   0.1374707E-03  -0.3861790E+01   0.1374707E-03  -0.3861790E+01   0.3000000E+00
   0.4975610E+01   0.3904762E+01   0.3532269E-03  -0.3451946E+01   0.3532269E-03  -0.3451946E+01   0.3000000E+00
   0.4975610E+01   0.4880952E+01   0.9710817E-03  -0.3012744E+01   0.9710817E-03  -0.3012744E+01   0.3000000E+00
   0.4975610E+01   0.5857143E+01   0.1769577E-03  -0.3752131E+01   0.1769577E-03  -0.3752131E+01   0.3000000E+00
   0.4975610E+01   0.6833333E+01   0.6188084E-04  -0.4208444E+01   0.6188084E-04  -0.4208444E+01   0.3000000E+00
   0.4975610E+01   0.7809524E+01   0.2904977E-04  -0.4536857E+01   0.2904977E-04  -0.4536857E+01   0.3000000E+00
   0.4975610E+01   0.8785714E+01   0.7290780E-05  -0.5137226E+01   0.7290780E-05  -0.5137226E+01   0.3000000E+00
   0.4975610E+01   0.9761905E+01   0.8498677E-05  -0.5070649E+01   0.8498677E-05  -0.5070649E+01   0.3000000E+00
   0.4975610E+01   0.1073810E+02   0.2258229E-07  -0.7646232E+01   0.2258229E-07  -0.7646232E+01   0.3000000E+00
   0.4975610E+01   0.1171429E+02   0.1927417E-07  -0.7715024E+01   0.1927417E-07  -0.7715024E+01   0.3000000E+00
   0.4975610E+01   0.1269048E+02   0.8600031E-08  -0.8065500E+01   0.8600031E-08  -0.8065500E+01   0.3000000E+00
   0.4975610E+01   0.1366667E+02   0.1411680E-07  -0.7850264E+01   0.1411680E-07  -0.7850264E+01   0.3000000E+00
   0.4975610E+01   0.1464286E+02   0.1337016E-03  -0.3873863E+01   0.1337016E-03  -0.3873863E+01   0.3000000E+00
   0.4975610E+01   0.1561905E+02   0.5612103E-04  -0.4250874E+01   0.5612103E-04  -0.4250874E+01   0.3000000E+00
   0.4975610E+01   0.1659524E+02   0.5201908E-04  -0.4283837E+01   0.5201908E-04  -0.4283837E+01   0.3000000E+00
   0.4975610E+01   0.1757143E+02   0.4418611E-04  -0.4354714E+01   0.4418611E-04  -0.4354714E+01   0.3000000E+00
   0.4975610E+01   0.1854762E+02   0.5393128E-04  -0.4268159E+01   0.5393128E-04  -0.4268159E+01   0.3000000E+00
   0.4975610E+01   0.1952381E+02   0.9158894E-04  -0.4038157E+01   0.9158894E-04  -0.4038157E+01   0.3000000E+00
   0.4975610E+01   0.2050000E+02   0.9158894E-04  -0.4038157E+01   0.9158894E-04  -0.4038157E+01   0.3000000E+00
   0.7463415E+01   0.0000000E+00   0.3048731E-04  -0.4515881E+01   0.3048731E-04  -0.4515881E+01   0.3000000E+00
   0.7463415E+01   0.9761905E+00   0.5490534E-04  -0.4260385E+01   0.5490534E-04  -0.4260385E+01   0.3000000E+00
   0.7463415E+01   0.1952381E+01   0.2884713E-04  -0.4539897E+01   0.2884713E-04  -0.4539897E+01   0.3000000E+00
   0.7463415E+01   0.2928571E+01   0.8136218E-04  -0.4089577E+01   0.8136218E-04  -0.4089577E+01   0.3000000E+00
   0.7463415E+01   0.3904762E+01   0.1602941E-03  -0.3795082E+01   0.1602941E-03  -0.3795082E+01   0.3000000E+00
   0.7463415E+01   0.4880952E+01   0.2220296E-03  -0.3653589E+01   0.2220296E-03  -0.3653589E+01   0.3000000E+00
   0.7463415E+01   0.5857143E+01   0.1577183E-03  -0.3802118E+01   0.1577183E-03  -0.3802118E+01   0.3000000E+00
   0.7463415E+01   0.6833333E+01   0.1375119E-03  -0.3861660E+01   0.1375119E-03  -0.3861660E+01   0.3000000E+00
   0.7463415E+01   0.7809524E+01   0.4033464E-04  -0.4394322E+01   0.4033464E-04  -0.4394322E+01   0.3000000E+00
   0.7463415E+01   0.8785714E+01   0.2874922E-04  -0.4541374E+01   0.2874922E-04  -0.4541374E+01   0.3000000E+00
   0.7463415E+01   0.9761905E+01   0.2978219E-04  -0.4526043E+01   0.2978219E-04  -0.4526043E+01   0.3000000E+00
   0.7463415E+01   0.1073810E+02   0.3371915E-07  -0.7472123E+01   0.3371915E-07  -0.7472123E+01   0.3000000E+00
   0.7463415E+01   0.1171429E+02   0.1212617E-07  -0.7916276E+01   0.1212617E-07  -0.7916276E+01   0.3000000E+00
   0.7463415E+01   0.1269048E+02   0.1241451E-07  -0.7906070E+01   0.1241451E-07  -0.7906070E+01   0.3000000E+00
   0.7463415E+01   0.1366667E+02   0.1613137E-07  -0.7792329E+01   0.1613137E-07  -0.7792329E+01   0.3000000E+00
   0.7463415E+01   0.1464286E+02   0.4385596E-04  -0.4357971E+01   0.4385596E-04  -0.4357971E+01   0.3000000E+00
   0.7463415E+01   0.1561905E+02   0.3221108E-04  -0.4491995E+01   0.3221108E-04  -0.4491995E+01   0.3000000E+00
   0.7463415E+01   0.1659524E+02   0.3761529E-04  -0.4424636E+01   0.3761529E-04  -0.4424636E+01   0.3000000E+00
   0.7463415E+01   0.1757143E+02   0.5359794E-04  -0.4270852E+01   0.5359794E-04  -0.4270852E+01   0.3000000E+00
   0.7463415E+01   0.1854762E+02   0.6001596E-04  -0.4221733E+01   0.6001596E-04  -0.4221733E+01   0.3000000E+00
   0.7463415E+01   0.1952381E+02   0.6984724E-04  -0.4155851E+01   0.6984724E-04  -0.4155851E+01   0.3000000E+00
   0.7463415E+01   0.2050000E+02   0.6984724E-04  -0.4155851E+01   0.6984724E-04  -0.4155851E+01   0.3000000E+00
   0.9951220E+01   0.0000000E+00   0.2921875E-04  -0.4534338E+01   0.2921875E-04  -0.4534338E+01   0.3000000E+00
   0.9951220E+01   0.9761905E+00   0.1926347E-04  -0.4715265E+01   0.1926347E-04  -0.4715265E+01   0.3000000E+00
   0.9951220E+01   0.1952381E+01   0.1835883E-04  -0.4736155E+01   0.1835883E-04  -0.4736155E+01   0.3000000E+00
   0.9951220E+01   0.2928571E+01   0.3159221E-04  -0.4500420E+01   0.3159221E-04  -0.4500420E+01   0.3000000E+00
   0.9951220E+01   0.3904762E+01   0.2686503E-03  -0.3570813E+01   0.2686503E-03  -0.3570813E+01   0.3000000E+00
   0.9951220E+01   0.4880952E+01   0.1880505E-03  -0.3725726E+01   0.1880505E-03  -0.3725726E+01   0.3000000E+00
   0.9951220E+01   0.5857143E+01   0.6570733E-04  -0.4182386E+01   0.6570733E-04  -0.4182386E+01   0.3000000E+00
   0.9951220E+01   0.6833333E+01   0.4855565E-04  -0.4313760E+01   0.4855565E-04  -0.4313760E+01   0.3000000E+00
   0.9951220E+01   0.7809524E+01   0.4219537E-04  -0.4374735E+01   0.4219537E-04  -0.4374735E+01   0.3000000E+00
   0.9951220E+01   0.8785714E+01   0.4604460E-04  -0.4336821E+01   0.4604460E-04  -0.4336821E+01   0.3000000E+00
   0.9951220E+01   0.9761905E+01   0.2714005E-04  -0.4566389E+01   0.2714005E-04  -0.4566389E+01   0.3000000E+00
   0.9951220E+01   0.1073810E+02   0.1598524E-07  -0.7796281E+01   0.1598524E-07  -0.7796281E+01   0.3000000E+00
   0.9951220E+01   0.1171429E+02   0.7267889E-08  -0.8138592E+01   0.7267889E-08  -0.8138592E+01   0.3000000E+00
   0.9951220E+01   0.1269048E+02   0.3796827E-08  -0.8420579E+01   0.3796827E-08  -0.8420579E+01   0.3000000E+00
   0.9951220E+01   0.1366667E+02   0.4161459E-08  -0.8380754E+01   0.4161459E-08  -0.8380754E+01   0.3000000E+00
   0.9951220E+01   0.1464286E+02   0.2410720E-04  -0.4617853E+01   0.2410720E-04  -0.4617853E+01   0.3000000E+00
   0.9951220E+01   0.1561905E+02   0.2185895E-04  -0.4660371E+01   0.2185895E-04  -0.4660371E+01   0.3000000E+00
   0.9951220E+01   0.1659524E+02   0.1315643E-04  -0.4880862E+01   0.1315643E-04  -0.4880862E+01   0.3000000E+00
   0.9951220E+01   0.1757143E+02   0.2607066E-04  -0.4583848E+01   0.2607066E-04  -0.4583848E+01   0.3000000E+00
   0.9951220E+01   0.1854762E+02   0.1884996E-04  -0.4724690E+01   0.1884996E-04  -0.4724690E+01   0.3000000E+00
   0.9951220E+01   0.1952381E+02   0.4798606E-04  -0.4318885E+01   0.4798606E-04  -0.4318885E+01   0.3000000E+00
   0.9951220E+01   0.2050000E+02   0.4798606E-04  -0.4318885E+01   0.4798606E-04  -0.4318885E+01   0.3000000E+00
   0.1243902E+02   0.0000000E+00   0.1562091E-04  -0.4806294E+01   0.1562091E-04  -0.4806294E+01   0.3000000E+00
   0.1243902E+02   0.9761905E+00   0.2024101E-04  -0.4693768E+01   0.2024101E-04  -0.4693768E+01   0.3000000E+00
   0.1243902E+02   0.1952381E+01   0.2403258E-04  -0.4619200E+01   0.2403258E-04  -0.4619200E+01   0.3000000E+00
   0.1243902E+02   0.2928571E+01   0.2520672E-04  -0.4598484E+01   0.2520672E-04  -0.4598484E+01   0.3000000E+00
   0.1243902E+02   0.3904762E+01   0.1064325E-03  -0.3972926E+01   0.1064325E-03  -0.3972926E+01   0.3000000E+00
   0.1243902E+02   0.4880952E+01   0.8506457E-04  -0.4070251E+01   0.8506457E-04  -0.4070251E+01   0.3000000E+00
   0.1243902E+02   0.5857143E+01   0.9908822E-04  -0.4003978E+01   0.9908822E-04  -0.4003978E+01   0.3000000E+00
   0.1243902E+02   0.6833333E+01   0.4018166E-04  -0.4395972E+01   0.4018166E-04  -0.4395972E+01   0.3000000E+00
   0.1243902E+02   0.7809524E+01   0.3420975E-04  -0.4465850E+01   0.3420975E-04  -0.4465850E+01   0.3000000E+00
   0.1243902E+02   0.8785714E+01   0.3883844E-04  -0.4410738E+01   0.3883844E-04  -0.4410738E+01   0.3000000E+00
   0.1243902E+02   0.9761905E+01   0.3570928E-04  -0.4447219E+01   0.3570928E-04  -0.4447219E+01   0.3000000E+00
   0.1243902E+02   0.1073810E+02   0.1903855E-07  -0.7720366E+01   0.1903855E-07  -0.7720366E+01   0.3000000E+00
   0.1243902E+02   0.1171429E+02   0.2223941E-07  -0.7652877E+01   0.2223941E-07  -0.7652877E+01   0.3000000E+00
   0.1243902E+02   0.1269048E+02   0.5929654E-08  -0.8226971E+01   0.5929654E-08  -0.8226971E+01   0.3000000E+00
   0.1243902E+02   0.1366667E+02   0.2617359E-08  -0.8582137E+01   0.2617359E-08  -0.8582137E+01   0.3000000E+00
   0.1243902E+02   0.1464286E+02   0.2099555E-04  -0.4677873E+01   0.2099555E-04  -0.4677873E+01   0.3000000E+00
   0.1243902E+02   0.1561905E+02   0.1329929E-04  -0.4876172E+01   0.1329929E-04  -0.4876172E+01   0.3000000E+00
   0.1243902E+02   0.1659524E+02   0.1910424E-04  -0.4718870E+01   0.1910424E-04  -0.4718870E+01   0.3000000E+00
   0.1243902E+02   0.1757143E+02   0.3861383E-04  -0.4413257E+01   0.3861383E-04  -0.4413257E+01   0.3000000E+00
   0.1243902E+02   0.1854762E+02   0.2430812E-04  -0.4614249E+01   0.2430812E-04  -0.4614249E+01   0.3000000E+00
   0.1243902E+02   0.1952381E+02   0.3367685E-04  -0.4472669E+01   0.3367685E-04  -0.4472669E+01   0.3000000E+00
   0.1243902E+02   0.2050000E+02   0.3367685E-04  -0.4472669E+01   0.3367685E-04  -0.4472669E+01   0.3000000E+00
   0.1492683E+02   0.0000000E+00   0.9362483E-05  -0.5028609E+01   0.9362483E-05  -0.5028609E+01   0.3000000E+00
   0.1492683E+02   0.9761905E+00   0.7785870E-05  -0.5108693E+01   0.7785870E-05  -0.5108693E+01   0.3000000E+00
   0.1492683E+02   0.1952381E+01   0.1457941E-04  -0.4836260E+01   0.1457941E-04  -0.4836260E+01   0.3000000E+00
   0.1492683E+02   0.2928571E+01   0.3443628E-04  -0.4462984E+01   0.3443628E-04  -0.4462984E+01   0.3000000E+00
   0.1492683E+02   0.3904762E+01   0.6467732E-04  -0.4189248E+01   0.6467732E-04  -0.4189248E+01   0.3000000E+00
   0.1492683E+02   0.4880952E+01   0.6381642E-04  -0.4195068E+01   0.6381642E-04  -0.4195068E+01   0.3000000E+00
   0.1492683E+02   0.5857143E+01   0.9502220E-04  -0.4022175E+01   0.9502220E-04  -0.4022175E+01   0.3000000E+00
   0.1492683E+02   0.6833333E+01   0.4827484E-04  -0.4316279E+01   0.4827484E-04  -0.4316279E+01   0.3000000E+00
   0.1492683E+02   0.7809524E+01   0.2903235E-04  -0.4537118E+01   0.2903235E-04  -0.4537118E+01   0.3000000E+00
   0.1492683E+02   0.8785714E+01   0.3632879E-04  -0.4439749E+01   0.3632879E-04  -0.4439749E+01   0.3000000E+00
   0.1492683E+02   0.9761905E+01   0.4637732E-04  -0.4333694E+01   0.4637732E-04  -0.4333694E+01   0.3000000E+00
   0.1492683E+02   0.1073810E+02   0.2848182E-07  -0.7545432E+01   0.2848182E-07  -0.7545432E+01   0.3000000E+00
   0.1492683E+02   0.1171429E+02   0.3954210E-07  -0.7402940E+01   0.3954210E-07  -0.7402940E+01   0.3000000E+00
   0.1492683E+02   0.1269048E+02   0.2814208E-07  -0.7550644E+01   0.2814208E-07  -0.7550644E+01   0.3000000E+00
   0.1492683E+02   0.1366667E+02   0.3058978E-07  -0.7514424E+01   0.3058978E-07  -0.7514424E+01   0.3000000E+00
   0.1492683E+02   0.1464286E+02   0.2162415E-04  -0.4665061E+01   0.2162415E-04  -0.4665061E+01   0.3000000E+00
   0.1492683E+02   0.1561905E+02   0.3088932E-04  -0.4510192E+01   0.3088932E-04  -0.4510192E+01   0.3000000E+00
   0.1492683E+02   0.1659524E+02   0.1626980E-04  -0.4788618E+01   0.1626980E-04  -0.4788618E+01   0.3000000E+00
   0.1492683E+02   0.1757143E+02   0.2431785E-04  -0.4614075E+01   0.2431785E-04  -0.4614075E+01   0.3000000E+00
   0.1492683E+02   0.1854762E+02   0.1964672E-04  -0.4706710E+01   0.1964672E-04  -0.4706710E+01   0.3000000E+00
   0.1492683E+02   0.1952381E+02   0.2346032E-04  -0.4629666E+01   0.2346032E-04  -0.4629666E+01   0.3000000E+00
   0.1492683E+02   0.2050000E+02   0.2346032E-04  -0.4629666E+01   0.2346032E-04  -0.4629666E+01   0.3000000E+00
   0.1741463E+02   0.0000000E+00   0.5172782E-05  -0.5286276E+01   0.5172782E-05  -0.5286276E+01   0.3000000E+00
   0.1741463E+02   0.9761905E+00   0.9660163E-05  -0.5015016E+01   0.9660163E-05  -0.5015016E+01   0.3000000E+00
   0.1741463E+02   0.1952381E+01   0.1050772E-04  -0.4978491E+01   0.1050772E-04  -0.4978491E+01   0.3000000E+00
   0.1741463E+02   0.2928571E+01   0.1284058E-04  -0.4891415E+01   0.1284058E-04  -0.4891415E+01   0.3000000E+00
   0.1741463E+02   0.3904762E+01   0.3427481E-04  -0.4465025E+01   0.3427481E-04  -0.4465025E+01   0.3000000E+00
   0.1741463E+02   0.4880952E+01   0.5346946E-04  -0.4271894E+01   0.5346946E-04  -0.4271894E+01   0.3000000E+00
   0.1741463E+02   0.5857143E+01   0.9386059E-04  -0.4027517E+01   0.9386059E-04  -0.4027517E+01   0.3000000E+00
   0.1741463E+02   0.6833333E+01   0.6400176E-04  -0.4193808E+01   0.6400176E-04  -0.4193808E+01   0.3000000E+00
   0.1741463E+02   0.7809524E+01   0.6370803E-04  -0.4195806E+01   0.6370803E-04  -0.4195806E+01   0.3000000E+00
   0.1741463E+02   0.8785714E+01   0.2568509E-04  -0.4590319E+01   0.2568509E-04  -0.4590319E+01   0.3000000E+00
   0.1741463E+02   0.9761905E+01   0.1962905E-04  -0.4707101E+01   0.1962905E-04  -0.4707101E+01   0.3000000E+00
   0.1741463E+02   0.1073810E+02   0.1883809E-06  -0.6724963E+01   0.1883809E-06  -0.6724963E+01   0.3000000E+00
   0.1741463E+02   0.1171429E+02   0.8318490E-07  -0.7079956E+01   0.8318490E-07  -0.7079956E+01   0.3000000E+00
   0.1741463E+02   0.1269048E+02   0.2800452E-07  -0.7552772E+01   0.2800452E-07  -0.7552772E+01   0.3000000E+00
   0.1741463E+02   0.1366667E+02   0.3695370E-07  -0.7432342E+01   0.3695370E-07  -0.7432342E+01   0.3000000E+00
   0.1741463E+02   0.1464286E+02   0.3086462E-04  -0.4510539E+01   0.3086462E-04  -0.4510539E+01   0.3000000E+00
   0.1741463E+02   0.1561905E+02   0.1489478E-04  -0.4826966E+01   0.1489478E-04  -0.4826966E+01   0.3000000E+00
   0.1741463E+02   0.1659524E+02   0.1106969E-04  -0.4955865E+01   0.1106969E-04  -0.4955865E+01   0.3000000E+00
   0.1741463E+02   0.1757143E+02   0.8068847E-05  -0.5093189E+01   0.8068847E-05  -0.5093189E+01   0.3000000E+00
   0.1741463E+02   0.1854762E+02   0.2057364E-04  -0.4686689E+01   0.2057364E-04  -0.4686689E+01   0.3000000E+00
   0.1741463E+02   0.1952381E+02   0.3401190E-04  -0.4468369E+01   0.3401190E-04  -0.4468369E+01   0.3000000E+00
   0.1741463E+02   0.2050000E+02   0.3401190E-04  -0.4468369E+01   0.3401190E-04  -0.4468369E+01   0.3000000E+00
   0.1990244E+02   0.0000000E+00   0.1508816E-04  -0.4821364E+01   0.1508816E-04  -0.4821364E+01   0.3000000E+00
   0.1990244E+02   0.9761905E+00   0.8764510E-05  -0.5057272E+01   0.8764510E-05  -0.5057272E+01   0.3000000E+00
   0.1990244E+02   0.1952381E+01   0.1445457E-04  -0.4839995E+01   0.1445457E-04  -0.4839995E+01   0.3000000E+00
   0.1990244E+02   0.2928571E+01   0.2435679E-04  -0.4613380E+01   0.2435679E-04  -0.4613380E+01   0.3000000E+00
   0.1990244E+02   0.3904762E+01   0.3659130E-04  -0.4436622E+01   0.3659130E-04  -0.4436622E+01   0.3000000E+00
   0.1990244E+02   0.4880952E+01   0.3311249E-04  -0.4480008E+01   0.3311249E-04  -0.4480008E+01   0.3000000E+00
   0.1990244E+02   0.5857143E+01   0.5189957E-04  -0.4284836E+01   0.5189957E-04  -0.4284836E+01   0.3000000E+00
   0.1990244E+02   0.6833333E+01   0.5079056E-04  -0.4294217E+01   0.5079056E-04  -0.4294217E+01   0.3000000E+00
   0.1990244E+02   0.7809524E+01   0.6282861E-04  -0.4201843E+01   0.6282861E-04  -0.4201843E+01   0.3000000E+00
   0.1990244E+02   0.8785714E+01   0.4217428E-04  -0.4374952E+01   0.4217428E-04  -0.4374952E+01   0.3000000E+00
   0.1990244E+02   0.9761905E+01   0.4170873E-04  -0.4379773E+01   0.4170873E-04  -0.4379773E+01   0.3000000E+00
   0.1990244E+02   0.1073810E+02   0.2000497E-06  -0.6698862E+01   0.2000497E-06  -0.6698862E+01   0.3000000E+00
   0.1990244E+02   0.1171429E+02   0.6599413E-07  -0.7180495E+01   0.6599413E-07  -0.7180495E+01   0.3000000E+00
   0.1990244E+02   0.1269048E+02   0.1907504E-06  -0.6719535E+01   0.1907504E-06  -0.6719535E+01   0.3000000E+00
   0.1990244E+02   0.1366667E+02   0.3018864E-07  -0.7520156E+01   0.3018864E-07  -0.7520156E+01   0.3000000E+00
   0.1990244E+02   0.1464286E+02   0.3073219E-04  -0.4512407E+01   0.3073219E-04  -0.4512407E+01   0.3000000E+00
   0.1990244E+02   0.1561905E+02   0.1521544E-04  -0.4817716E+01   0.1521544E-04  -0.4817716E+01   0.3000000E+00
   0.1990244E+02   0.1659524E+02   0.1985609E-04  -0.4702106E+01   0.1985609E-04  -0.4702106E+01   0.3000000E+00
   0.1990244E+02   0.1757143E+02   0.1541453E-04  -0.4812070E+01   0.1541453E-04  -0.4812070E+01   0.3000000E+00
   0.1990244E+02   0.1854762E+02   0.4074815E-04  -0.4389892E+01   0.4074815E-04  -0.4389892E+01   0.3000000E+00
   0.1990244E+02   0.1952381E+02   0.5111666E-04  -0.4291437E+01   0.5111666E-04  -0.4291437E+01   0.3000000E+00
   0.1990244E+02   0.2050000E+02   0.5111666E-04  -0.4291437E+01   0.5111666E-04  -0.4291437E+01   0.3000000E+00
   0.2239024E+02   0.0000000E+00   0.2013401E-04  -0.4696070E+01   0.2013401E-04  -0.4696070E+01   0.3000000E+00
   0.2239024E+02   0.9761905E+00   0.2065403E-04  -0.4684995E+01   0.2065403E-04  -0.4684995E+01   0.3000000E+00
   0.2239024E+02   0.1952381E+01   0.3542120E-04  -0.4450737E+01   0.3542120E-04  -0.4450737E+01   0.3000000E+00
   0.2239024E+02   0.2928571E+01   0.1841215E-04  -0.4734896E+01   0.1841215E-04  -0.4734896E+01   0.3000000E+00
   0.2239024E+02   0.3904762E+01   0.2745122E-04  -0.4561438E+01   0.2745122E-04  -0.4561438E+01   0.3000000E+00
   0.2239024E+02   0.4880952E+01   0.3800093E-04  -0.4420206E+01   0.3800093E-04  -0.4420206E+01   0.3000000E+00
   0.2239024E+02   0.5857143E+01   0.4870154E-04  -0.4312457E+01   0.4870154E-04  -0.4312457E+01   0.3000000E+00
   0.2239024E+02   0.6833333E+01   0.4042751E-04  -0.4393323E+01   0.4042751E-04  -0.4393323E+01   0.3000000E+00
   0.2239024E+02   0.7809524E+01   0.8705243E-04  -0.4060219E+01   0.8705243E-04  -0.4060219E+01   0.3000000E+00
   0.2239024E+02   0.8785714E+01   0.5418535E-04  -0.4266118E+01   0.5418535E-04  -0.4266118E+01   0.3000000E+00
   0.2239024E+02   0.9761905E+01   0.2246168E-04  -0.4648558E+01   0.2246168E-04  -0.4648558E+01   0.3000000E+00
   0.2239024E+02   0.1073810E+02   0.4104548E-06  -0.6386735E+01   0.4104548E-06  -0.6386735E+01   0.3000000E+00
   0.2239024E+02   0.1171429E+02   0.3975679E-06  -0.6400589E+01   0.3975679E-06  -0.6400589E+01   0.3000000E+00
   0.2239024E+02   0.1269048E+02   0.1139735E-06  -0.6943196E+01   0.1139735E-06  -0.6943196E+01   0.3000000E+00
   0.2239024E+02   0.1366667E+02   0.1464473E-06  -0.6834319E+01   0.1464473E-06  -0.6834319E+01   0.3000000E+00
   0.2239024E+02   0.1464286E+02   0.4031044E-04  -0.4394582E+01   0.4031044E-04  -0.4394582E+01   0.3000000E+00
   0.2239024E+02   0.1561905E+02   0.2566455E-04  -0.4590666E+01   0.2566455E-04  -0.4590666E+01   0.3000000E+00
   0.2239024E+02   0.1659524E+02   0.2339472E-04  -0.4630882E+01   0.2339472E-04  -0.4630882E+01   0.3000000E+00
   0.2239024E+02   0.1757143E+02   0.2065403E-04  -0.4684995E+01   0.2065403E-04  -0.4684995E+01   0.3000000E+00
   0.2239024E+02   0.1854762E+02   0.4039518E-04  -0.4393670E+01   0.4039518E-04  -0.4393670E+01   0.3000000E+00
   0.2239024E+02   0.1952381E+02   0.4949693E-04  -0.4305422E+01   0.4949693E-04  -0.4305422E+01   0.3000000E+00
   0.2239024E+02   0.2050000E+02   0.4949693E-04  -0.4305422E+01   0.4949693E-04  -0.4305422E+01   0.3000000E+00
   0.2487805E+02   0.0000000E+00   0.1817979E-04  -0.4740411E+01   0.1817979E-04  -0.4740411E+01   0.3000000E+00
   0.2487805E+02   0.9761905E+00   0.2739911E-04  -0.4562264E+01   0.2739911E-04  -0.4562264E+01   0.3000000E+00
   0.2487805E+02   0.1952381E+01   0.5130102E-04  -0.4289874E+01   0.5130102E-04  -0.4289874E+01   0.3000000E+00
   0.2487805E+02   0.2928571E+01   0.3761529E-04  -0.4424636E+01   0.3761529E-04  -0.4424636E+01   0.3000000E+00
   0.2487805E+02   0.3904762E+01   0.1731392E-04  -0.4761605E+01   0.1731392E-04  -0.4761605E+01   0.3000000E+00
   0.2487805E+02   0.4880952E+01   0.3378816E-04  -0.4471235E+01   0.3378816E-04  -0.4471235E+01   0.3000000E+00
   0.2487805E+02   0.5857143E+01   0.2787724E-04  -0.4554750E+01   0.2787724E-04  -0.4554750E+01   0.3000000E+00
   0.2487805E+02   0.6833333E+01   0.3928766E-04  -0.4405744E+01   0.3928766E-04  -0.4405744E+01   0.3000000E+00
   0.2487805E+02   0.7809524E+01   0.9453882E-04  -0.4024390E+01   0.9453882E-04  -0.4024390E+01   0.3000000E+00
   0.2487805E+02   0.8785714E+01   0.1153661E-03  -0.3937922E+01   0.1153661E-03  -0.3937922E+01   0.3000000E+00
   0.2487805E+02   0.9761905E+01   0.4790934E-04  -0.4319580E+01   0.4790934E-04  -0.4319580E+01   0.3000000E+00
   0.2487805E+02   0.1073810E+02   0.5879641E-06  -0.6230649E+01   0.5879641E-06  -0.6230649E+01   0.3000000E+00
   0.2487805E+02   0.1171429E+02   0.1298112E-05  -0.5886688E+01   0.1298112E-05  -0.5886688E+01   0.3000000E+00
   0.2487805E+02   0.1269048E+02   0.1010667E-05  -0.5995392E+01   0.1010667E-05  -0.5995392E+01   0.3000000E+00
   0.2487805E+02   0.1366667E+02   0.1900459E-06  -0.6721141E+01   0.1900459E-06  -0.6721141E+01   0.3000000E+00
   0.2487805E+02   0.1464286E+02   0.2659732E-04  -0.4575162E+01   0.2659732E-04  -0.4575162E+01   0.3000000E+00
   0.2487805E+02   0.1561905E+02   0.4098928E-04  -0.4387330E+01   0.4098928E-04  -0.4387330E+01   0.3000000E+00
   0.2487805E+02   0.1659524E+02   0.3409022E-04  -0.4467370E+01   0.3409022E-04  -0.4467370E+01   0.3000000E+00
   0.2487805E+02   0.1757143E+02   0.6361254E-04  -0.4196457E+01   0.6361254E-04  -0.4196457E+01   0.3000000E+00
   0.2487805E+02   0.1854762E+02   0.2036485E-04  -0.4691119E+01   0.2036485E-04  -0.4691119E+01   0.3000000E+00
   0.2487805E+02   0.1952381E+02   0.4139295E-04  -0.4383074E+01   0.4139295E-04  -0.4383074E+01   0.3000000E+00
   0.2487805E+02   0.2050000E+02   0.4139295E-04  -0.4383074E+01   0.4139295E-04  -0.4383074E+01   0.3000000E+00
   0.2736585E+02   0.0000000E+00   0.3427481E-04  -0.4465025E+01   0.3427481E-04  -0.4465025E+01   0.3000000E+00
   0.2736585E+02   0.9761905E+00   0.4996939E-04  -0.4301296E+01   0.4996939E-04  -0.4301296E+01   0.3000000E+00
   0.2736585E+02   0.1952381E+01   0.5268920E-04  -0.4278278E+01   0.5268920E-04  -0.4278278E+01   0.3000000E+00
   0.2736585E+02   0.2928571E+01   0.4592504E-04  -0.4337950E+01   0.4592504E-04  -0.4337950E+01   0.3000000E+00
   0.2736585E+02   0.3904762E+01   0.1392952E-04  -0.4856064E+01   0.1392952E-04  -0.4856064E+01   0.3000000E+00
   0.2736585E+02   0.4880952E+01   0.4368088E-04  -0.4359709E+01   0.4368088E-04  -0.4359709E+01   0.3000000E+00
   0.2736585E+02   0.5857143E+01   0.1847485E-04  -0.4733419E+01   0.1847485E-04  -0.4733419E+01   0.3000000E+00
   0.2736585E+02   0.6833333E+01   0.1542224E-04  -0.4811853E+01   0.1542224E-04  -0.4811853E+01   0.3000000E+00
   0.2736585E+02   0.7809524E+01   0.2995842E-04  -0.4523481E+01   0.2995842E-04  -0.4523481E+01   0.3000000E+00
   0.2736585E+02   0.8785714E+01   0.4154223E-04  -0.4381510E+01   0.4154223E-04  -0.4381510E+01   0.3000000E+00
   0.2736585E+02   0.9761905E+01   0.3096355E-04  -0.4509149E+01   0.3096355E-04  -0.4509149E+01   0.3000000E+00
   0.2736585E+02   0.1073810E+02   0.1012387E-05  -0.5994654E+01   0.1012387E-05  -0.5994654E+01   0.3000000E+00
   0.2736585E+02   0.1171429E+02   0.1448909E-05  -0.5838959E+01   0.1448909E-05  -0.5838959E+01   0.3000000E+00
   0.2736585E+02   0.1269048E+02   0.3014686E-06  -0.6520758E+01   0.3014686E-06  -0.6520758E+01   0.3000000E+00
   0.2736585E+02   0.1366667E+02   0.9270903E-07  -0.7032878E+01   0.9270903E-07  -0.7032878E+01   0.3000000E+00
   0.2736585E+02   0.1464286E+02   0.2196193E-04  -0.4658329E+01   0.2196193E-04  -0.4658329E+01   0.3000000E+00
   0.2736585E+02   0.1561905E+02   0.2134485E-04  -0.4670707E+01   0.2134485E-04  -0.4670707E+01   0.3000000E+00
   0.2736585E+02   0.1659524E+02   0.3152278E-04  -0.4501375E+01   0.3152278E-04  -0.4501375E+01   0.3000000E+00
   0.2736585E+02   0.1757143E+02   0.2801697E-04  -0.4552579E+01   0.2801697E-04  -0.4552579E+01   0.3000000E+00
   0.2736585E+02   0.1854762E+02   0.1895581E-04  -0.4722258E+01   0.1895581E-04  -0.4722258E+01   0.3000000E+00
   0.2736585E+02   0.1952381E+02   0.1763015E-04  -0.4753744E+01   0.1763015E-04  -0.4753744E+01   0.3000000E+00
   0.2736585E+02   0.2050000E+02   0.1763015E-04  -0.4753744E+01   0.1763015E-04  -0.4753744E+01   0.3000000E+00