title="2d vectors xz, t=    0.150E+03"
variables="x","z","vx","vz"
zone i=    21, j=    41, T="   0.150E+03"
  0.124390E+01  0.488075E+00  0.313436E-06  0.180631E-07
  0.124390E+01  0.146423E+01  0.449433E-06  0.492363E-07
  0.124390E+01  0.244038E+01  0.630404E-06  0.275402E-07
  0.124390E+01  0.341653E+01  0.809292E-06  0.406510E-07
  0.124390E+01  0.439268E+01  0.639429E-06  0.453165E-07
  0.124390E+01  0.536883E+01  0.141356E-05  0.300073E-07
  0.124390E+01  0.634498E+01  0.365258E-06 -0.116911E-08
  0.124390E+01  0.732113E+01  0.101084E-06 -0.185696E-07
  0.124390E+01  0.829728E+01  0.139276E-06 -0.224371E-07
  0.124390E+01  0.927343E+01  0.135108E-06 -0.279700E-07
  0.124390E+01  0.102496E+02  0.297728E-06 -0.167101E-07
  0.124390E+01  0.112257E+02  0.170989E-09 -0.520346E-11
  0.124390E+01  0.122019E+02  0.563032E-10  0.488903E-11
  0.124390E+01  0.131780E+02  0.207893E-09  0.249207E-10
  0.124390E+01  0.141542E+02  0.122218E-09  0.531862E-10
  0.124390E+01  0.151303E+02  0.272273E-09 -0.467779E-10
  0.124390E+01  0.161065E+02  0.450550E-06 -0.631054E-07
  0.124390E+01  0.170826E+02  0.510478E-06 -0.639379E-08
  0.124390E+01  0.180588E+02  0.807565E-06  0.468073E-07
  0.124390E+01  0.190349E+02  0.610323E-06  0.710671E-08
  0.124390E+01  0.200111E+02  0.363321E-06  0.710080E-07
  0.373171E+01  0.487996E+00  0.225165E-06  0.165529E-07
  0.373171E+01  0.146399E+01  0.394628E-06  0.829636E-07
  0.373171E+01  0.243998E+01  0.892467E-06  0.163816E-06
  0.373171E+01  0.341597E+01  0.596367E-06  0.180275E-06
  0.373171E+01  0.439196E+01  0.870917E-06  0.176693E-06
  0.373171E+01  0.536795E+01  0.195197E-05  0.735475E-07
  0.373171E+01  0.634394E+01  0.600662E-06 -0.266946E-07
  0.373171E+01  0.731993E+01  0.143172E-06 -0.303966E-07
  0.373171E+01  0.829593E+01  0.169903E-06 -0.460044E-07
  0.373171E+01  0.927192E+01  0.117470E-06 -0.456300E-07
  0.373171E+01  0.102479E+02  0.156416E-06 -0.173868E-07
  0.373171E+01  0.112239E+02  0.516194E-10  0.120055E-10
  0.373171E+01  0.121999E+02  0.133524E-09  0.995068E-11
  0.373171E+01  0.131759E+02  0.574139E-10  0.855826E-11
  0.373171E+01  0.141519E+02  0.693167E-10  0.310482E-10
  0.373171E+01  0.151279E+02  0.338840E-06 -0.732069E-07
  0.373171E+01  0.161039E+02  0.322350E-06 -0.891380E-07
  0.373171E+01  0.170798E+02  0.275750E-06 -0.657598E-07
  0.373171E+01  0.180558E+02  0.572731E-06 -0.574564E-07
  0.373171E+01  0.190318E+02  0.873793E-06  0.209829E-07
  0.373171E+01  0.200078E+02  0.446439E-06 -0.128314E-07
  0.621951E+01  0.487912E+00  0.207027E-06  0.107736E-07
  0.621951E+01  0.146374E+01  0.263670E-06  0.178952E-07
  0.621951E+01  0.243956E+01  0.564608E-06  0.105886E-06
  0.621951E+01  0.341538E+01  0.599980E-06  0.207445E-06
  0.621951E+01  0.439121E+01  0.124975E-05  0.244087E-06
  0.621951E+01  0.536703E+01  0.320679E-05  0.421536E-06
  0.621951E+01  0.634285E+01  0.733841E-06  0.246990E-06
  0.621951E+01  0.731868E+01  0.331765E-06  0.526038E-07
  0.621951E+01  0.829450E+01  0.191846E-06  0.272274E-08
  0.621951E+01  0.927032E+01  0.624967E-07 -0.414275E-09
  0.621951E+01  0.102461E+02  0.860841E-07  0.911127E-10
  0.621951E+01  0.112220E+02  0.210917E-09  0.129754E-10
  0.621951E+01  0.121978E+02  0.148196E-09 -0.172500E-10
  0.621951E+01  0.131736E+02  0.559607E-10 -0.529468E-11
  0.621951E+01  0.141494E+02  0.699032E-10 -0.201906E-10
  0.621951E+01  0.151253E+02  0.566001E-06 -0.357791E-08
  0.621951E+01  0.161011E+02  0.279705E-06 -0.251157E-07
  0.621951E+01  0.170769E+02  0.324024E-06 -0.536452E-07
  0.621951E+01  0.180527E+02  0.315016E-06 -0.443406E-07
  0.621951E+01  0.190286E+02  0.383170E-06 -0.332730E-07
  0.621951E+01  0.200044E+02  0.596914E-06 -0.619486E-08
  0.870732E+01  0.487797E+00  0.203623E-06 -0.111720E-07
  0.870732E+01  0.146339E+01  0.346581E-06 -0.131530E-07
  0.870732E+01  0.243899E+01  0.185309E-06  0.282405E-07
  0.870732E+01  0.341458E+01  0.569441E-06  0.106339E-06
  0.870732E+01  0.439017E+01  0.120081E-05  0.672912E-08
  0.870732E+01  0.536577E+01  0.161660E-05 -0.120221E-07
  0.870732E+01  0.634136E+01  0.977225E-06  0.200547E-06
  0.870732E+01  0.731696E+01  0.720880E-06  0.225472E-06
  0.870732E+01  0.829255E+01  0.222825E-06  0.128795E-06
  0.870732E+01  0.926815E+01  0.166154E-06  0.722538E-07
  0.870732E+01  0.102437E+02  0.163468E-06  0.199728E-07
  0.870732E+01  0.112193E+02  0.189022E-09 -0.606768E-10
  0.870732E+01  0.121949E+02  0.702908E-10 -0.272255E-10
  0.870732E+01  0.131705E+02  0.724150E-10 -0.271498E-10
  0.870732E+01  0.141461E+02  0.108971E-09 -0.237814E-10
  0.870732E+01  0.151217E+02  0.331466E-06  0.101764E-07
  0.870732E+01  0.160973E+02  0.230542E-06  0.598247E-08
  0.870732E+01  0.170729E+02  0.244804E-06 -0.546164E-08
  0.870732E+01  0.180485E+02  0.333973E-06 -0.160968E-07
  0.870732E+01  0.190241E+02  0.398238E-06 -0.210986E-07
  0.870732E+01  0.199997E+02  0.507815E-06 -0.148381E-07
  0.111951E+02  0.487670E+00  0.234729E-06 -0.164978E-08
  0.111951E+02  0.146301E+01  0.168513E-06  0.649669E-08
  0.111951E+02  0.243835E+01  0.157033E-06  0.351211E-08
  0.111951E+02  0.341369E+01  0.229686E-06  0.911777E-08
  0.111951E+02  0.438903E+01  0.173897E-05  0.759978E-07
  0.111951E+02  0.536437E+01  0.132644E-05  0.122216E-06
  0.111951E+02  0.633970E+01  0.544270E-06  0.615552E-07
  0.111951E+02  0.731504E+01  0.441583E-06  0.782536E-07
  0.111951E+02  0.829038E+01  0.368542E-06  0.127580E-06
  0.111951E+02  0.926572E+01  0.374304E-06  0.825030E-07
  0.111951E+02  0.102411E+02  0.221818E-06  0.207269E-07
  0.111951E+02  0.112164E+02  0.155282E-09  0.373581E-10
  0.111951E+02  0.121917E+02  0.870785E-10 -0.814563E-12
  0.111951E+02  0.131671E+02  0.482955E-10 -0.889938E-11
  0.111951E+02  0.141424E+02  0.482498E-10 -0.764607E-11
  0.111951E+02  0.151178E+02  0.253324E-06 -0.309144E-08
  0.111951E+02  0.160931E+02  0.234710E-06  0.236832E-08
  0.111951E+02  0.170684E+02  0.153171E-06  0.768985E-08
  0.111951E+02  0.180438E+02  0.320980E-06 -0.741900E-09
  0.111951E+02  0.190191E+02  0.224187E-06 -0.124386E-07
  0.111951E+02  0.199945E+02  0.531540E-06 -0.176241E-07
  0.136829E+02  0.487470E+00  0.132431E-06  0.772438E-08
  0.136829E+02  0.146241E+01  0.167413E-06  0.218954E-07
  0.136829E+02  0.243735E+01  0.218100E-06  0.241232E-07
  0.136829E+02  0.341229E+01  0.261238E-06 -0.128482E-07
  0.136829E+02  0.438723E+01  0.115427E-05  0.292417E-07
  0.136829E+02  0.536217E+01  0.907756E-06  0.144357E-06
  0.136829E+02  0.633711E+01  0.101252E-05  0.185560E-06
  0.136829E+02  0.731206E+01  0.397143E-06  0.760609E-07
  0.136829E+02  0.828700E+01  0.336951E-06  0.594521E-07
  0.136829E+02  0.926194E+01  0.383098E-06  0.610519E-07
  0.136829E+02  0.102369E+02  0.348307E-06  0.291481E-07
  0.136829E+02  0.112118E+02  0.190770E-09  0.131340E-09
  0.136829E+02  0.121868E+02  0.242418E-09  0.747356E-10
  0.136829E+02  0.131617E+02  0.742383E-10  0.119350E-11
  0.136829E+02  0.141366E+02  0.356088E-10 -0.117458E-10
  0.136829E+02  0.151116E+02  0.290701E-06  0.763842E-08
  0.136829E+02  0.160865E+02  0.186018E-06  0.747264E-08
  0.136829E+02  0.170615E+02  0.248694E-06 -0.639452E-09
  0.136829E+02  0.180364E+02  0.467242E-06 -0.164193E-08
  0.136829E+02  0.190113E+02  0.305098E-06 -0.137035E-07
  0.136829E+02  0.199863E+02  0.449207E-06 -0.181004E-07
  0.161707E+02  0.487252E+00  0.116714E-06  0.314500E-08
  0.161707E+02  0.146176E+01  0.963590E-07  0.376304E-08
  0.161707E+02  0.243626E+01  0.163022E-06  0.884346E-08
  0.161707E+02  0.341076E+01  0.352411E-06  0.260983E-07
  0.161707E+02  0.438527E+01  0.684310E-06  0.725300E-07
  0.161707E+02  0.535977E+01  0.708154E-06  0.110176E-06
  0.161707E+02  0.633427E+01  0.107229E-05  0.111004E-06
  0.161707E+02  0.730878E+01  0.542120E-06  0.774792E-07
  0.161707E+02  0.828328E+01  0.310219E-06  0.159656E-07
  0.161707E+02  0.925779E+01  0.340300E-06 -0.206260E-07
  0.161707E+02  0.102323E+02  0.382312E-06 -0.895723E-08
  0.161707E+02  0.112068E+02  0.253264E-09  0.291902E-09
  0.161707E+02  0.121813E+02  0.387105E-09  0.180158E-09
  0.161707E+02  0.131558E+02  0.302464E-09  0.157316E-09
  0.161707E+02  0.141303E+02  0.409022E-09 -0.124836E-10
  0.161707E+02  0.151048E+02  0.311835E-06 -0.913616E-08
  0.161707E+02  0.160793E+02  0.414005E-06 -0.274909E-07
  0.161707E+02  0.170538E+02  0.220927E-06 -0.987656E-08
  0.161707E+02  0.180283E+02  0.360602E-06  0.335548E-07
  0.161707E+02  0.190028E+02  0.314576E-06  0.429500E-07
  0.161707E+02  0.199773E+02  0.391170E-06  0.970623E-08
  0.186585E+02  0.486926E+00  0.725040E-07 -0.225024E-08
  0.186585E+02  0.146078E+01  0.127230E-06 -0.109800E-07
  0.186585E+02  0.243463E+01  0.136921E-06 -0.124298E-07
  0.186585E+02  0.340848E+01  0.163734E-06 -0.754702E-08
  0.186585E+02  0.438234E+01  0.390557E-06 -0.383957E-08
  0.186585E+02  0.535619E+01  0.530527E-06  0.276709E-07
  0.186585E+02  0.633004E+01  0.857929E-06  0.808791E-07
  0.186585E+02  0.730389E+01  0.576946E-06  0.928980E-07
  0.186585E+02  0.827775E+01  0.606941E-06  0.396513E-07
  0.186585E+02  0.925160E+01  0.284796E-06 -0.494600E-09
  0.186585E+02  0.102254E+02  0.245651E-06  0.629727E-09
  0.186585E+02  0.111993E+02  0.211475E-08  0.158123E-08
  0.186585E+02  0.121732E+02  0.986116E-09  0.858447E-09
  0.186585E+02  0.131470E+02  0.383109E-09  0.194519E-09
  0.186585E+02  0.141209E+02  0.542196E-09  0.276335E-09
  0.186585E+02  0.150947E+02  0.514437E-06 -0.163190E-07
  0.186585E+02  0.160686E+02  0.269000E-06  0.257425E-08
  0.186585E+02  0.170424E+02  0.210908E-06  0.145665E-07
  0.186585E+02  0.180163E+02  0.151177E-06  0.148558E-07
  0.186585E+02  0.189901E+02  0.358432E-06  0.286441E-07
  0.186585E+02  0.199640E+02  0.554963E-06  0.260830E-08
  0.211463E+02  0.486643E+00  0.143908E-06 -0.104192E-07
  0.211463E+02  0.145993E+01  0.886423E-07 -0.137777E-07
  0.211463E+02  0.243321E+01  0.142840E-06 -0.245625E-07
  0.211463E+02  0.340650E+01  0.224590E-06 -0.603195E-07
  0.211463E+02  0.437979E+01  0.341119E-06 -0.523908E-07
  0.211463E+02  0.535307E+01  0.324689E-06 -0.229320E-07
  0.211463E+02  0.632636E+01  0.514837E-06  0.190102E-07
  0.211463E+02  0.729964E+01  0.498613E-06  0.692401E-07
  0.211463E+02  0.827293E+01  0.593980E-06  0.686967E-07
  0.211463E+02  0.924622E+01  0.354166E-06  0.337640E-07
  0.211463E+02  0.102195E+02  0.305226E-06  0.414683E-08
  0.211463E+02  0.111928E+02  0.171008E-08  0.163664E-08
  0.211463E+02  0.121661E+02  0.615459E-09  0.932964E-09
  0.211463E+02  0.131394E+02  0.200720E-08  0.207241E-08
  0.211463E+02  0.141126E+02  0.451116E-09  0.525418E-09
  0.211463E+02  0.150859E+02  0.525204E-06  0.420620E-08
  0.211463E+02  0.160592E+02  0.242505E-06  0.187088E-08
  0.211463E+02  0.170325E+02  0.279585E-06 -0.167710E-07
  0.211463E+02  0.180058E+02  0.189880E-06 -0.202318E-07
  0.211463E+02  0.189791E+02  0.469002E-06 -0.357989E-07
  0.211463E+02  0.199524E+02  0.583873E-06 -0.358210E-07
  0.236341E+02  0.486419E+00  0.151641E-06  0.241981E-08
  0.236341E+02  0.145926E+01  0.158086E-06 -0.123414E-07
  0.236341E+02  0.243209E+01  0.293217E-06 -0.592242E-07
  0.236341E+02  0.340493E+01  0.161497E-06 -0.540448E-07
  0.236341E+02  0.437777E+01  0.225219E-06 -0.594345E-07
  0.236341E+02  0.535061E+01  0.280059E-06 -0.326347E-07
  0.236341E+02  0.632344E+01  0.346848E-06  0.927826E-08
  0.236341E+02  0.729628E+01  0.284729E-06  0.434544E-07
  0.236341E+02  0.826912E+01  0.618789E-06  0.540820E-07
  0.236341E+02  0.924195E+01  0.416517E-06  0.281433E-08
  0.236341E+02  0.102148E+02  0.188673E-06 -0.201442E-08
  0.236341E+02  0.111876E+02  0.387380E-08  0.581862E-08
  0.236341E+02  0.121605E+02  0.396842E-08  0.458519E-08
  0.236341E+02  0.131333E+02  0.103661E-08  0.162679E-08
  0.236341E+02  0.141061E+02  0.150118E-08  0.414026E-08
  0.236341E+02  0.150790E+02  0.505706E-06  0.257112E-07
  0.236341E+02  0.160518E+02  0.354936E-06 -0.972121E-09
  0.236341E+02  0.170247E+02  0.360597E-06 -0.323881E-07
  0.236341E+02  0.179975E+02  0.334992E-06 -0.665244E-07
  0.236341E+02  0.189703E+02  0.619254E-06 -0.133857E-06
  0.236341E+02  0.199432E+02  0.711411E-06 -0.464218E-07
  0.261220E+02  0.486180E+00  0.166336E-06 -0.540880E-08
  0.261220E+02  0.145854E+01  0.240502E-06 -0.224182E-07
  0.261220E+02  0.243090E+01  0.427503E-06 -0.509501E-07
  0.261220E+02  0.340326E+01  0.319004E-06 -0.743639E-07
  0.261220E+02  0.437562E+01  0.152835E-06 -0.638892E-07
  0.261220E+02  0.534798E+01  0.293036E-06 -0.630705E-07
  0.261220E+02  0.632034E+01  0.215002E-06 -0.527991E-07
  0.261220E+02  0.729270E+01  0.252289E-06 -0.135785E-07
  0.261220E+02  0.826506E+01  0.549590E-06  0.617551E-07
  0.261220E+02  0.923742E+01  0.654062E-06  0.130699E-06
  0.261220E+02  0.102098E+02  0.280782E-06  0.547670E-07
  0.261220E+02  0.111821E+02  0.401477E-08  0.106325E-07
  0.261220E+02  0.121545E+02  0.897289E-08  0.120028E-07
  0.261220E+02  0.131269E+02  0.585572E-08  0.115652E-07
  0.261220E+02  0.140992E+02  0.198608E-08  0.874192E-08
  0.261220E+02  0.150716E+02  0.400278E-06  0.151113E-07
  0.261220E+02  0.160439E+02  0.575972E-06  0.313971E-07
  0.261220E+02  0.170163E+02  0.447615E-06 -0.168440E-07
  0.261220E+02  0.179887E+02  0.841300E-06 -0.115058E-06
  0.261220E+02  0.189610E+02  0.298822E-06 -0.671935E-07
  0.261220E+02  0.199334E+02  0.640871E-06 -0.551679E-07
  0.286098E+02  0.485946E+00  0.261783E-06 -0.274546E-07
  0.286098E+02  0.145784E+01  0.373047E-06 -0.853754E-07
  0.286098E+02  0.242973E+01  0.383533E-06 -0.906025E-07
  0.286098E+02  0.340162E+01  0.319267E-06 -0.786631E-07
  0.286098E+02  0.437352E+01  0.941869E-07 -0.495553E-07
  0.286098E+02  0.534541E+01  0.312838E-06 -0.599989E-07
  0.286098E+02  0.631730E+01  0.160247E-06 -0.180501E-07
  0.286098E+02  0.728919E+01  0.162217E-06  0.237565E-08
  0.286098E+02  0.826109E+01  0.341343E-06  0.251119E-07
  0.286098E+02  0.923298E+01  0.480693E-06  0.429780E-07
  0.286098E+02  0.102049E+02  0.350054E-06  0.325713E-07
  0.286098E+02  0.111768E+02  0.903534E-08  0.147495E-07
  0.286098E+02  0.121487E+02  0.110605E-07  0.140366E-07
  0.286098E+02  0.131206E+02  0.402189E-08  0.686359E-08
  0.286098E+02  0.140924E+02  0.166064E-08  0.540906E-08
  0.286098E+02  0.150643E+02  0.386349E-06 -0.173532E-07
  0.286098E+02  0.160362E+02  0.366689E-06 -0.317253E-07
  0.286098E+02  0.170081E+02  0.540443E-06 -0.217640E-07
  0.286098E+02  0.179800E+02  0.507212E-06  0.304260E-07
  0.286098E+02  0.189519E+02  0.366059E-06  0.114269E-07
  0.286098E+02  0.199238E+02  0.356870E-06 -0.137882E-07
  0.310976E+02  0.485560E+00  0.508527E-06 -0.434991E-07
  0.310976E+02  0.145668E+01  0.395771E-06 -0.654901E-07
  0.310976E+02  0.242780E+01  0.417840E-06 -0.532565E-07
  0.310976E+02  0.339892E+01  0.214829E-06 -0.133989E-07
  0.310976E+02  0.437004E+01  0.670398E-07 -0.133830E-07
  0.310976E+02  0.534117E+01  0.174268E-06 -0.131460E-07
  0.310976E+02  0.631229E+01  0.756110E-07  0.103934E-07
  0.310976E+02  0.728341E+01  0.162618E-06  0.284431E-07
  0.310976E+02  0.825453E+01  0.300973E-06  0.362276E-07
  0.310976E+02  0.922565E+01  0.551832E-06  0.356034E-07
  0.310976E+02  0.101968E+02  0.511247E-06  0.157089E-07
  0.310976E+02  0.111679E+02  0.638844E-08  0.718284E-08
  0.310976E+02  0.121390E+02  0.378361E-08  0.688795E-08
  0.310976E+02  0.131101E+02  0.227187E-08  0.409312E-08
  0.310976E+02  0.140813E+02  0.229062E-08  0.517192E-08
  0.310976E+02  0.150524E+02  0.424935E-06 -0.988983E-08
  0.310976E+02  0.160235E+02  0.284580E-06 -0.270507E-07
  0.310976E+02  0.169946E+02  0.293974E-06 -0.129213E-07
  0.310976E+02  0.179657E+02  0.289217E-06  0.854786E-08
  0.310976E+02  0.189369E+02  0.394343E-06  0.412325E-07
  0.310976E+02  0.199080E+02  0.403171E-06  0.171576E-07
  0.335854E+02  0.485216E+00  0.481111E-06  0.166066E-09
  0.335854E+02  0.145565E+01  0.295992E-06  0.136681E-08
  0.335854E+02  0.242608E+01  0.316010E-06  0.633645E-09
  0.335854E+02  0.339651E+01  0.112307E-06  0.286365E-08
  0.335854E+02  0.436694E+01  0.208874E-06  0.276446E-07
  0.335854E+02  0.533738E+01  0.879440E-07  0.116978E-07
  0.335854E+02  0.630781E+01  0.746564E-07  0.423797E-09
  0.335854E+02  0.727824E+01  0.988107E-07 -0.124484E-07
  0.335854E+02  0.824867E+01  0.312891E-06 -0.270123E-07
  0.335854E+02  0.921910E+01  0.449068E-06 -0.263521E-07
  0.335854E+02  0.101895E+02  0.480689E-06 -0.872394E-08
  0.335854E+02  0.111600E+02  0.644538E-09  0.121062E-08
  0.335854E+02  0.121304E+02  0.132539E-08  0.399829E-08
  0.335854E+02  0.131008E+02  0.217719E-08  0.373233E-08
  0.335854E+02  0.140713E+02  0.175820E-08  0.301318E-08
  0.335854E+02  0.150417E+02  0.565298E-06  0.923555E-08
  0.335854E+02  0.160121E+02  0.409044E-06  0.293312E-08
  0.335854E+02  0.169826E+02  0.266009E-06 -0.109247E-07
  0.335854E+02  0.179530E+02  0.221728E-06 -0.401837E-08
  0.335854E+02  0.189234E+02  0.240173E-06 -0.148650E-08
  0.335854E+02  0.198939E+02  0.604556E-06 -0.109458E-07
  0.360732E+02  0.484867E+00  0.392230E-06  0.229397E-07
  0.360732E+02  0.145460E+01  0.315482E-06  0.147000E-07
  0.360732E+02  0.242434E+01  0.315285E-06  0.168199E-07
  0.360732E+02  0.339407E+01  0.861993E-07  0.201837E-07
  0.360732E+02  0.436380E+01  0.815405E-07  0.132127E-07
  0.360732E+02  0.533354E+01  0.192821E-06  0.232814E-07
  0.360732E+02  0.630327E+01  0.153327E-06 -0.162324E-07
  0.360732E+02  0.727301E+01  0.167265E-06 -0.443839E-07
  0.360732E+02  0.824274E+01  0.254159E-06 -0.448212E-07
  0.360732E+02  0.921247E+01  0.367381E-06 -0.400975E-07
  0.360732E+02  0.101822E+02  0.357985E-06 -0.171200E-07
  0.360732E+02  0.111519E+02  0.115778E-08  0.324556E-08
  0.360732E+02  0.121217E+02  0.171957E-09  0.791455E-09
  0.360732E+02  0.130914E+02  0.530035E-09  0.647288E-09
  0.360732E+02  0.140611E+02  0.123196E-08  0.139643E-08
  0.360732E+02  0.150309E+02  0.516431E-06  0.331555E-07
  0.360732E+02  0.160006E+02  0.418508E-06  0.593998E-07
  0.360732E+02  0.169703E+02  0.362488E-06  0.408919E-07
  0.360732E+02  0.179401E+02  0.198772E-06  0.202576E-07
  0.360732E+02  0.189098E+02  0.449276E-06  0.145459E-07
  0.360732E+02  0.198795E+02  0.509310E-06 -0.148719E-07
  0.385610E+02  0.484560E+00  0.256467E-06  0.102844E-07
  0.385610E+02  0.145368E+01  0.455698E-06  0.491144E-07
  0.385610E+02  0.242280E+01  0.177915E-06  0.531836E-07
  0.385610E+02  0.339192E+01  0.931909E-07  0.602264E-07
  0.385610E+02  0.436104E+01  0.271359E-06  0.306883E-07
  0.385610E+02  0.533016E+01  0.208237E-06 -0.107859E-07
  0.385610E+02  0.629928E+01  0.169623E-06 -0.556671E-08
  0.385610E+02  0.726840E+01  0.163444E-06 -0.563525E-08
  0.385610E+02  0.823752E+01  0.264638E-06 -0.205454E-07
  0.385610E+02  0.920664E+01  0.282455E-06 -0.227622E-07
  0.385610E+02  0.101758E+02  0.191086E-06 -0.653335E-08
  0.385610E+02  0.111449E+02  0.434743E-09  0.151512E-08
  0.385610E+02  0.121140E+02  0.510058E-09  0.214044E-08
  0.385610E+02  0.130831E+02  0.115297E-08  0.225275E-08
  0.385610E+02  0.140522E+02  0.594008E-09  0.821237E-09
  0.385610E+02  0.150214E+02  0.318158E-06  0.142075E-07
  0.385610E+02  0.159905E+02  0.319884E-06  0.281655E-07
  0.385610E+02  0.169596E+02  0.321679E-06  0.504192E-07
  0.385610E+02  0.179287E+02  0.305019E-06  0.315064E-07
  0.385610E+02  0.188978E+02  0.268823E-06  0.124277E-07
  0.385610E+02  0.198670E+02  0.712405E-06  0.194902E-07
  0.410488E+02  0.484407E+00  0.223751E-06  0.323925E-08
  0.410488E+02  0.145322E+01  0.123662E-06  0.288590E-07
  0.410488E+02  0.242204E+01  0.196750E-06  0.929222E-07
  0.410488E+02  0.339085E+01  0.172231E-06  0.623029E-07
  0.410488E+02  0.435967E+01  0.318254E-06  0.584195E-07
  0.410488E+02  0.532848E+01  0.155517E-06  0.707210E-07
  0.410488E+02  0.629730E+01  0.223224E-06  0.807471E-07
  0.410488E+02  0.726611E+01  0.229768E-06  0.445874E-07
  0.410488E+02  0.823493E+01  0.267359E-06  0.238621E-07
  0.410488E+02  0.920374E+01  0.268432E-06  0.237842E-07
  0.410488E+02  0.101726E+02  0.226515E-06  0.118149E-07
  0.410488E+02  0.111414E+02 -0.124130E-09  0.249277E-08
  0.410488E+02  0.121102E+02 -0.276863E-09  0.314108E-08
  0.410488E+02  0.130790E+02  0.335745E-09  0.446414E-08
  0.410488E+02  0.140478E+02  0.636639E-09  0.278071E-08
  0.410488E+02  0.150166E+02  0.257086E-06 -0.541761E-09
  0.410488E+02  0.159854E+02  0.337778E-06  0.280871E-08
  0.410488E+02  0.169543E+02  0.293671E-06 -0.108403E-07
  0.410488E+02  0.179231E+02  0.604642E-06 -0.522673E-07
  0.410488E+02  0.188919E+02  0.382836E-06 -0.565171E-07
  0.410488E+02  0.198607E+02  0.728501E-06 -0.447603E-07
  0.435366E+02  0.484226E+00  0.136578E-06 -0.546658E-09
  0.435366E+02  0.145268E+01  0.116564E-06  0.277939E-08
  0.435366E+02  0.242113E+01  0.711458E-07  0.464477E-08
  0.435366E+02  0.338958E+01  0.219656E-06  0.311230E-07
  0.435366E+02  0.435804E+01  0.154689E-06  0.430017E-07
  0.435366E+02  0.532649E+01  0.169795E-06  0.746729E-07
  0.435366E+02  0.629494E+01  0.167149E-06  0.811651E-07
  0.435366E+02  0.726339E+01  0.327439E-06  0.111900E-06
  0.435366E+02  0.823184E+01  0.360755E-06  0.960290E-07
  0.435366E+02  0.920030E+01  0.323688E-06  0.607648E-07
  0.435366E+02  0.101687E+02  0.412186E-06  0.338882E-07
  0.435366E+02  0.111372E+02  0.277692E-10  0.314327E-08
  0.435366E+02  0.121057E+02 -0.409088E-09  0.290914E-08
  0.435366E+02  0.130741E+02 -0.729377E-09  0.286672E-08
  0.435366E+02  0.140426E+02  0.191499E-09  0.248025E-08
  0.435366E+02  0.150110E+02  0.299919E-06  0.438824E-08
  0.435366E+02  0.159795E+02  0.284367E-06  0.168116E-07
  0.435366E+02  0.169479E+02  0.584230E-06 -0.224732E-07
  0.435366E+02  0.179164E+02  0.476060E-06 -0.621119E-07
  0.435366E+02  0.188848E+02  0.521979E-06 -0.732026E-07
  0.435366E+02  0.198533E+02  0.716628E-06 -0.371166E-07
  0.460244E+02  0.483984E+00  0.204704E-06 -0.683353E-08
  0.460244E+02  0.145195E+01  0.769566E-07 -0.992578E-08
  0.460244E+02  0.241992E+01  0.124805E-06 -0.105885E-07
  0.460244E+02  0.338789E+01  0.109649E-06 -0.306643E-08
  0.460244E+02  0.435586E+01  0.159689E-06  0.164208E-07
  0.460244E+02  0.532382E+01  0.126507E-06  0.221883E-07
  0.460244E+02  0.629179E+01  0.157199E-06  0.451909E-07
  0.460244E+02  0.725976E+01  0.242955E-06  0.612140E-07
  0.460244E+02  0.822773E+01  0.411834E-06  0.103548E-06
  0.460244E+02  0.919570E+01  0.556847E-06  0.815942E-07
  0.460244E+02  0.101637E+02  0.499732E-06  0.272297E-07
  0.460244E+02  0.111316E+02  0.102129E-08  0.477095E-08
  0.460244E+02  0.120996E+02  0.558463E-09  0.425321E-08
  0.460244E+02  0.130676E+02  0.136878E-09  0.314624E-08
  0.460244E+02  0.140355E+02  0.579769E-09  0.413420E-08
  0.460244E+02  0.150035E+02  0.221716E-06 -0.698614E-08
  0.460244E+02  0.159715E+02  0.216184E-06 -0.294799E-07
  0.460244E+02  0.169394E+02  0.520013E-06 -0.255027E-07
  0.460244E+02  0.179074E+02  0.509573E-06 -0.622189E-08
  0.460244E+02  0.188754E+02  0.379306E-06 -0.249794E-07
  0.460244E+02  0.198433E+02  0.643701E-06 -0.305864E-07
  0.485122E+02  0.483605E+00  0.217690E-06 -0.337465E-08
  0.485122E+02  0.145081E+01  0.103110E-06 -0.155478E-07
  0.485122E+02  0.241802E+01  0.111089E-06 -0.190347E-07
  0.485122E+02  0.338523E+01  0.113600E-06 -0.149885E-07
  0.485122E+02  0.435244E+01  0.126830E-06 -0.121622E-07
  0.485122E+02  0.531965E+01  0.141996E-06 -0.387279E-08
  0.485122E+02  0.628686E+01  0.974761E-07 -0.463355E-08
  0.485122E+02  0.725407E+01  0.218336E-06 -0.947497E-08
  0.485122E+02  0.822128E+01  0.288771E-06  0.745839E-09
  0.485122E+02  0.918849E+01  0.590389E-06  0.284862E-07
  0.485122E+02  0.101557E+02  0.528769E-06  0.210236E-07
  0.485122E+02  0.111229E+02  0.572937E-09  0.357952E-08
  0.485122E+02  0.120901E+02  0.193755E-08  0.522033E-08
  0.485122E+02  0.130573E+02  0.693926E-09  0.536396E-08
  0.485122E+02  0.140245E+02  0.374409E-09  0.437669E-08
  0.485122E+02  0.149917E+02  0.362036E-06 -0.297838E-07
  0.485122E+02  0.159590E+02  0.244624E-06 -0.617303E-07
  0.485122E+02  0.169262E+02  0.301298E-06 -0.371201E-07
  0.485122E+02  0.178934E+02  0.388254E-06 -0.183975E-08
  0.485122E+02  0.188606E+02  0.463981E-06 -0.251460E-08
  0.485122E+02  0.198278E+02  0.515202E-06 -0.179736E-07
  0.510000E+02  0.483212E+00  0.349357E-06 -0.249801E-08
  0.510000E+02  0.144963E+01  0.154547E-06 -0.985914E-08
  0.510000E+02  0.241606E+01  0.105344E-06 -0.159442E-07
  0.510000E+02  0.338248E+01  0.130137E-06 -0.234872E-07
  0.510000E+02  0.434890E+01  0.103850E-06 -0.184581E-07
  0.510000E+02  0.531533E+01  0.172761E-06 -0.362155E-07
  0.510000E+02  0.628175E+01  0.132364E-06 -0.557099E-07
  0.510000E+02  0.724817E+01  0.179124E-06 -0.529932E-07
  0.510000E+02  0.821460E+01  0.201457E-06 -0.432039E-07
  0.510000E+02  0.918102E+01  0.492580E-06 -0.280158E-07
  0.510000E+02  0.101474E+02  0.575001E-06  0.501461E-08
  0.510000E+02  0.111139E+02  0.294572E-09  0.305608E-08
  0.510000E+02  0.120803E+02  0.826519E-09  0.398044E-08
  0.510000E+02  0.130467E+02  0.147056E-08  0.519901E-08
  0.510000E+02  0.140131E+02  0.403478E-09  0.461630E-08
  0.510000E+02  0.149796E+02  0.415769E-06 -0.166631E-08
  0.510000E+02  0.159460E+02  0.266808E-06 -0.139711E-07
  0.510000E+02  0.169124E+02  0.276637E-06 -0.319425E-07
  0.510000E+02  0.178788E+02  0.273128E-06 -0.244536E-07
  0.510000E+02  0.188453E+02  0.315964E-06 -0.126730E-08
  0.510000E+02  0.198117E+02  0.453729E-06 -0.492199E-08
  0.534878E+02  0.482780E+00  0.343985E-06 -0.121423E-08
  0.534878E+02  0.144834E+01  0.197804E-06 -0.543363E-08
  0.534878E+02  0.241390E+01  0.193104E-06 -0.213676E-07
  0.534878E+02  0.337946E+01  0.126636E-06 -0.341720E-07
  0.534878E+02  0.434502E+01  0.199751E-06 -0.771550E-07
  0.534878E+02  0.531058E+01  0.254872E-06 -0.102824E-06
  0.534878E+02  0.627614E+01  0.116845E-06 -0.659879E-07
  0.534878E+02  0.724170E+01  0.150871E-06 -0.495950E-07
  0.534878E+02  0.820726E+01  0.227713E-06 -0.440496E-07
  0.534878E+02  0.917282E+01  0.306454E-06 -0.498983E-07
  0.534878E+02  0.101384E+02  0.412225E-06 -0.260215E-07
  0.534878E+02  0.111039E+02  0.711689E-09  0.378626E-08
  0.534878E+02  0.120695E+02  0.780247E-09  0.305595E-08
  0.534878E+02  0.130351E+02  0.132928E-08  0.260682E-08
  0.534878E+02  0.140006E+02  0.528096E-09  0.287579E-08
  0.534878E+02  0.149662E+02  0.466062E-06  0.155005E-08
  0.534878E+02  0.159317E+02  0.395995E-06  0.352678E-09
  0.534878E+02  0.168973E+02  0.342636E-06 -0.242395E-07
  0.534878E+02  0.178629E+02  0.209227E-06 -0.404544E-07
  0.534878E+02  0.188284E+02  0.305760E-06 -0.468631E-07
  0.534878E+02  0.197940E+02  0.548512E-06 -0.274588E-07
  0.559756E+02  0.482575E+00  0.369267E-06 -0.550491E-08
  0.559756E+02  0.144773E+01  0.206966E-06 -0.201228E-07
  0.559756E+02  0.241288E+01  0.168354E-06 -0.287831E-07
  0.559756E+02  0.337803E+01  0.240587E-06 -0.661822E-07
  0.559756E+02  0.434318E+01  0.202552E-06 -0.740043E-07
  0.559756E+02  0.530833E+01  0.147686E-06 -0.466315E-07
  0.559756E+02  0.627348E+01  0.114717E-06 -0.390305E-07
  0.559756E+02  0.723863E+01  0.984600E-07 -0.298933E-07
  0.559756E+02  0.820378E+01  0.260292E-06 -0.365595E-07
  0.559756E+02  0.916893E+01  0.329057E-06 -0.212954E-07
  0.559756E+02  0.101341E+02  0.241600E-06 -0.128536E-08
  0.559756E+02  0.110992E+02  0.701524E-09  0.285308E-08
  0.559756E+02  0.120644E+02  0.110230E-08  0.322287E-08
  0.559756E+02  0.130295E+02  0.126053E-08  0.417855E-08
  0.559756E+02  0.139947E+02  0.943069E-09  0.380354E-08
  0.559756E+02  0.149598E+02  0.632043E-06 -0.282071E-08
  0.559756E+02  0.159250E+02  0.249602E-06 -0.170448E-07
  0.559756E+02  0.168901E+02  0.409384E-06 -0.271340E-07
  0.559756E+02  0.178553E+02  0.382036E-06 -0.499037E-07
  0.559756E+02  0.188204E+02  0.227101E-06 -0.509788E-07
  0.559756E+02  0.197856E+02  0.441317E-06 -0.424534E-07
  0.584634E+02  0.482329E+00  0.342044E-06 -0.237359E-08
  0.584634E+02  0.144699E+01  0.233141E-06 -0.113034E-07
  0.584634E+02  0.241165E+01  0.251518E-06 -0.387136E-07
  0.584634E+02  0.337631E+01  0.222619E-06 -0.397455E-07
  0.584634E+02  0.434096E+01  0.134069E-06 -0.189034E-07
  0.584634E+02  0.530562E+01  0.966214E-07 -0.166712E-07
  0.584634E+02  0.627028E+01  0.919502E-07 -0.238733E-07
  0.584634E+02  0.723494E+01  0.128767E-06 -0.458210E-07
  0.584634E+02  0.819960E+01  0.166638E-06 -0.336920E-07
  0.584634E+02  0.916426E+01  0.138258E-06 -0.113978E-07
  0.584634E+02  0.101289E+02  0.239498E-06  0.133607E-08
  0.584634E+02  0.110936E+02  0.243710E-09  0.246225E-08
  0.584634E+02  0.120582E+02  0.122922E-08  0.375542E-08
  0.584634E+02  0.130229E+02  0.518698E-09  0.190867E-08
  0.584634E+02  0.139876E+02  0.115615E-08  0.280758E-08
  0.584634E+02  0.149522E+02  0.498025E-06  0.118749E-07
  0.584634E+02  0.159169E+02  0.540034E-06 -0.132236E-07
  0.584634E+02  0.168815E+02  0.301207E-06 -0.274244E-07
  0.584634E+02  0.178462E+02  0.426298E-06 -0.122750E-07
  0.584634E+02  0.188108E+02  0.264593E-06 -0.248377E-07
  0.584634E+02  0.197755E+02  0.278983E-06 -0.197558E-07
  0.609512E+02  0.482099E+00  0.306343E-06  0.180210E-07
  0.609512E+02  0.144630E+01  0.254649E-06  0.116375E-07
  0.609512E+02  0.241050E+01  0.222487E-06 -0.990348E-08
  0.609512E+02  0.337469E+01  0.135994E-06 -0.998568E-08
  0.609512E+02  0.433889E+01  0.850819E-07  0.123433E-09
  0.609512E+02  0.530309E+01  0.127001E-06  0.192058E-08
  0.609512E+02  0.626729E+01  0.189462E-06 -0.195530E-07
  0.609512E+02  0.723149E+01  0.130102E-06 -0.312442E-07
  0.609512E+02  0.819568E+01  0.126200E-06 -0.306706E-07
  0.609512E+02  0.915988E+01  0.125894E-06 -0.223201E-07
  0.609512E+02  0.101241E+02  0.136228E-06 -0.962636E-08
  0.609512E+02  0.110883E+02  0.546658E-09  0.462621E-08
  0.609512E+02  0.120525E+02  0.138146E-08  0.324839E-08
  0.609512E+02  0.130167E+02  0.946271E-09  0.372001E-08
  0.609512E+02  0.139809E+02  0.945086E-09  0.356611E-08
  0.609512E+02  0.149451E+02  0.516951E-06  0.595083E-09
  0.609512E+02  0.159093E+02  0.471064E-06  0.947735E-08
  0.609512E+02  0.168735E+02  0.338206E-06 -0.182382E-07
  0.609512E+02  0.178377E+02  0.481401E-06 -0.708187E-07
  0.609512E+02  0.188019E+02  0.224068E-06 -0.414919E-07