title="breakthrough data set at     5 wells"
variables="time(days)","cavg","cpk","upk","zswi"
zone i=     1295
   0.100000E+02   0.205398E-10   0.358722E-10   0.455331E+00   0.483014E+01
   0.200000E+02   0.612724E-10   0.110199E-09   0.376971E+00   0.481510E+01
   0.300000E+02   0.146173E-09   0.264733E-09   0.376687E+00   0.481510E+01
   0.400000E+02   0.308975E-09   0.560096E-09   0.376692E+00   0.481510E+01
   0.500000E+02   0.601883E-09   0.108956E-08   0.376688E+00   0.481510E+01
   0.600000E+02   0.110162E-08   0.198922E-08   0.376681E+00   0.481510E+01
   0.700000E+02   0.191561E-08   0.344820E-08   0.376665E+00   0.481510E+01
   0.800000E+02   0.318790E-08   0.571796E-08   0.376644E+00   0.481510E+01
   0.900000E+02   0.510418E-08   0.911993E-08   0.376620E+00   0.481510E+01
   0.100000E+03   0.789576E-08   0.140508E-07   0.376592E+00   0.481510E+01
   0.110000E+03   0.118418E-07   0.209851E-07   0.376561E+00   0.481510E+01
   0.120000E+03   0.172702E-07   0.304741E-07   0.376527E+00   0.481510E+01
   0.130000E+03   0.245561E-07   0.431425E-07   0.376492E+00   0.481510E+01
   0.140000E+03   0.341193E-07   0.596815E-07   0.376454E+00   0.481510E+01
   0.150000E+03   0.464197E-07   0.808399E-07   0.376415E+00   0.481510E+01
   0.160000E+03   0.619517E-07   0.107413E-06   0.376374E+00   0.481510E+01
   0.170000E+03   0.812371E-07   0.140228E-06   0.376333E+00   0.481510E+01
   0.180000E+03   0.104814E-06   0.180133E-06   0.376331E+00   0.481510E+01
   0.190000E+03   0.133237E-06   0.227979E-06   0.376290E+00   0.481510E+01
   0.200000E+03   0.167063E-06   0.284611E-06   0.376248E+00   0.481510E+01
   0.210000E+03   0.206843E-06   0.350851E-06   0.376205E+00   0.481510E+01
   0.220000E+03   0.253115E-06   0.427488E-06   0.376161E+00   0.481510E+01
   0.230000E+03   0.306399E-06   0.515262E-06   0.376116E+00   0.481510E+01
   0.240000E+03   0.367183E-06   0.614854E-06   0.376072E+00   0.481510E+01
   0.250000E+03   0.435921E-06   0.726879E-06   0.376027E+00   0.481510E+01
   0.260000E+03   0.513028E-06   0.851874E-06   0.375983E+00   0.481510E+01
   0.270000E+03   0.598870E-06   0.990293E-06   0.375939E+00   0.481510E+01
   0.280000E+03   0.693766E-06   0.114250E-05   0.375895E+00   0.481510E+01
   0.290000E+03   0.797979E-06   0.130878E-05   0.375852E+00   0.481510E+01
   0.300000E+03   0.911720E-06   0.148932E-05   0.375810E+00   0.481510E+01
   0.310000E+03   0.103514E-05   0.168420E-05   0.375769E+00   0.481510E+01
   0.320000E+03   0.116835E-05   0.189343E-05   0.375729E+00   0.481510E+01
   0.330000E+03   0.131137E-05   0.211692E-05   0.375689E+00   0.481510E+01
   0.340000E+03   0.146420E-05   0.235449E-05   0.375651E+00   0.481510E+01
   0.350000E+03   0.162677E-05   0.260589E-05   0.375613E+00   0.481510E+01
   0.360000E+03   0.179895E-05   0.287077E-05   0.375577E+00   0.481510E+01
   0.370000E+03   0.198055E-05   0.314871E-05   0.375541E+00   0.481510E+01
   0.380000E+03   0.217136E-05   0.343921E-05   0.375507E+00   0.481510E+01
   0.390000E+03   0.237108E-05   0.374173E-05   0.375473E+00   0.481510E+01
   0.400000E+03   0.257939E-05   0.405564E-05   0.375440E+00   0.481510E+01
   0.410000E+03   0.279594E-05   0.438028E-05   0.375409E+00   0.481510E+01
   0.420000E+03   0.302034E-05   0.471495E-05   0.375377E+00   0.481510E+01
   0.430000E+03   0.325217E-05   0.505893E-05   0.375347E+00   0.481510E+01
   0.440000E+03   0.349098E-05   0.541146E-05   0.375318E+00   0.481510E+01
   0.450000E+03   0.373633E-05   0.577178E-05   0.375289E+00   0.481510E+01
   0.460000E+03   0.398774E-05   0.613909E-05   0.375261E+00   0.481510E+01
   0.470000E+03   0.424473E-05   0.651263E-05   0.375234E+00   0.481510E+01
   0.480000E+03   0.450682E-05   0.689160E-05   0.375207E+00   0.481510E+01
   0.490000E+03   0.477352E-05   0.727524E-05   0.375181E+00   0.481510E+01
   0.500000E+03   0.504433E-05   0.766278E-05   0.375156E+00   0.481510E+01
   0.510000E+03   0.531878E-05   0.805347E-05   0.375132E+00   0.481510E+01
   0.520000E+03   0.559639E-05   0.844659E-05   0.375108E+00   0.481510E+01
   0.530000E+03   0.587670E-05   0.884143E-05   0.375085E+00   0.481510E+01
   0.540000E+03   0.615926E-05   0.923733E-05   0.375063E+00   0.481510E+01
   0.550000E+03   0.644365E-05   0.963366E-05   0.375041E+00   0.481510E+01
   0.560000E+03   0.672949E-05   0.100298E-04   0.375020E+00   0.481510E+01
   0.570000E+03   0.701641E-05   0.104253E-04   0.375000E+00   0.481510E+01
   0.580000E+03   0.730409E-05   0.108196E-04   0.374980E+00   0.481510E+01
   0.590000E+03   0.759224E-05   0.112123E-04   0.374960E+00   0.481510E+01
   0.600000E+03   0.788061E-05   0.116030E-04   0.374941E+00   0.481510E+01
   0.610000E+03   0.816900E-05   0.119914E-04   0.374923E+00   0.481510E+01
   0.620000E+03   0.845723E-05   0.123772E-04   0.374905E+00   0.481510E+01
   0.630000E+03   0.874516E-05   0.127602E-04   0.374887E+00   0.481510E+01
   0.640000E+03   0.903269E-05   0.131402E-04   0.374870E+00   0.481510E+01
   0.650000E+03   0.931973E-05   0.135171E-04   0.374853E+00   0.481510E+01
   0.660000E+03   0.960624E-05   0.138906E-04   0.374837E+00   0.481510E+01
   0.670000E+03   0.989216E-05   0.142609E-04   0.374821E+00   0.481510E+01
   0.680000E+03   0.101775E-04   0.146278E-04   0.374806E+00   0.481510E+01
   0.690000E+03   0.104622E-04   0.149913E-04   0.374791E+00   0.481510E+01
   0.700000E+03   0.107462E-04   0.153514E-04   0.374776E+00   0.481510E+01
   0.710000E+03   0.110296E-04   0.157081E-04   0.374762E+00   0.481510E+01
   0.720000E+03   0.113124E-04   0.160613E-04   0.374748E+00   0.481510E+01
   0.730000E+03   0.115944E-04   0.164112E-04   0.374734E+00   0.481510E+01
   0.740000E+03   0.118758E-04   0.167577E-04   0.374721E+00   0.481510E+01
   0.750000E+03   0.121565E-04   0.171009E-04   0.374708E+00   0.481510E+01
   0.760000E+03   0.124364E-04   0.174407E-04   0.374695E+00   0.481510E+01
   0.770000E+03   0.127156E-04   0.177773E-04   0.374683E+00   0.481510E+01
   0.780000E+03   0.129939E-04   0.181105E-04   0.374671E+00   0.481510E+01
   0.790000E+03   0.132714E-04   0.184405E-04   0.374659E+00   0.481510E+01
   0.800000E+03   0.135480E-04   0.187672E-04   0.374648E+00   0.481510E+01
   0.810000E+03   0.138237E-04   0.190907E-04   0.374637E+00   0.481510E+01
   0.820000E+03   0.140983E-04   0.194109E-04   0.374626E+00   0.481510E+01
   0.830000E+03   0.143719E-04   0.197279E-04   0.374615E+00   0.481510E+01
   0.840000E+03   0.146445E-04   0.200417E-04   0.374605E+00   0.481510E+01
   0.850000E+03   0.149159E-04   0.203522E-04   0.374595E+00   0.481510E+01
   0.860000E+03   0.151862E-04   0.206594E-04   0.374585E+00   0.481510E+01
   0.870000E+03   0.154552E-04   0.209634E-04   0.374576E+00   0.481510E+01
   0.880000E+03   0.157229E-04   0.212640E-04   0.374566E+00   0.481510E+01
   0.890000E+03   0.159893E-04   0.215612E-04   0.374557E+00   0.481510E+01
   0.900000E+03   0.162543E-04   0.218550E-04   0.374548E+00   0.481510E+01
   0.910000E+03   0.165179E-04   0.221453E-04   0.374539E+00   0.481510E+01
   0.920000E+03   0.167800E-04   0.224322E-04   0.374531E+00   0.481510E+01
   0.930000E+03   0.170405E-04   0.227155E-04   0.374523E+00   0.481510E+01
   0.940000E+03   0.172994E-04   0.229952E-04   0.374514E+00   0.481510E+01
   0.950000E+03   0.175567E-04   0.232712E-04   0.374507E+00   0.481510E+01
   0.960000E+03   0.178122E-04   0.235435E-04   0.374499E+00   0.481510E+01
   0.970000E+03   0.180660E-04   0.238121E-04   0.374491E+00   0.481510E+01
   0.980000E+03   0.183179E-04   0.240768E-04   0.374484E+00   0.481510E+01
   0.990000E+03   0.185680E-04   0.243378E-04   0.374477E+00   0.481510E+01
   0.100000E+04   0.188162E-04   0.245949E-04   0.374469E+00   0.481510E+01
   0.101000E+04   0.190623E-04   0.248480E-04   0.374463E+00   0.481510E+01
   0.102000E+04   0.193065E-04   0.250973E-04   0.374456E+00   0.481510E+01
   0.103000E+04   0.195486E-04   0.253426E-04   0.374449E+00   0.481510E+01
   0.104000E+04   0.197885E-04   0.255840E-04   0.374443E+00   0.481510E+01
   0.105000E+04   0.200264E-04   0.258214E-04   0.374436E+00   0.481510E+01
   0.106000E+04   0.202620E-04   0.260548E-04   0.374430E+00   0.481510E+01
   0.107000E+04   0.204954E-04   0.262843E-04   0.374424E+00   0.481510E+01
   0.108000E+04   0.207267E-04   0.265099E-04   0.374418E+00   0.481510E+01
   0.109000E+04   0.209556E-04   0.267316E-04   0.374413E+00   0.481510E+01
   0.110000E+04   0.211823E-04   0.269494E-04   0.374407E+00   0.481510E+01
   0.111000E+04   0.214067E-04   0.271635E-04   0.374401E+00   0.481510E+01
   0.112000E+04   0.216289E-04   0.273737E-04   0.374396E+00   0.481510E+01
   0.113000E+04   0.218488E-04   0.275803E-04   0.374391E+00   0.481510E+01
   0.114000E+04   0.220666E-04   0.277833E-04   0.374385E+00   0.481510E+01
   0.115000E+04   0.222821E-04   0.279827E-04   0.374380E+00   0.481510E+01
   0.116000E+04   0.224955E-04   0.281787E-04   0.374375E+00   0.481510E+01
   0.117000E+04   0.227069E-04   0.283714E-04   0.374370E+00   0.481510E+01
   0.118000E+04   0.229162E-04   0.285609E-04   0.374365E+00   0.481510E+01
   0.119000E+04   0.231237E-04   0.287473E-04   0.374361E+00   0.481510E+01
   0.120000E+04   0.233293E-04   0.289306E-04   0.374356E+00   0.481510E+01
   0.121000E+04   0.235331E-04   0.291112E-04   0.374352E+00   0.481510E+01
   0.122000E+04   0.237354E-04   0.292890E-04   0.374347E+00   0.481510E+01
   0.123000E+04   0.239361E-04   0.294641E-04   0.374343E+00   0.481510E+01
   0.124000E+04   0.241355E-04   0.296368E-04   0.374338E+00   0.481510E+01
   0.125000E+04   0.243337E-04   0.298072E-04   0.374334E+00   0.481510E+01
   0.126000E+04   0.245307E-04   0.299754E-04   0.374330E+00   0.481510E+01
   0.127000E+04   0.247268E-04   0.301414E-04   0.374326E+00   0.481510E+01
   0.128000E+04   0.249221E-04   0.303056E-04   0.374322E+00   0.481510E+01
   0.129000E+04   0.251168E-04   0.304680E-04   0.374318E+00   0.481510E+01
   0.130000E+04   0.253109E-04   0.306289E-04   0.374314E+00   0.481510E+01
   0.131000E+04   0.255046E-04   0.307882E-04   0.374310E+00   0.481510E+01
   0.132000E+04   0.256982E-04   0.309463E-04   0.374306E+00   0.481510E+01
   0.133000E+04   0.258917E-04   0.311032E-04   0.374302E+00   0.481510E+01
   0.134000E+04   0.260853E-04   0.312592E-04   0.374298E+00   0.481510E+01
   0.135000E+04   0.262791E-04   0.314145E-04   0.374295E+00   0.481510E+01
   0.136000E+04   0.264733E-04   0.315691E-04   0.374291E+00   0.481510E+01
   0.137000E+04   0.266681E-04   0.317234E-04   0.374287E+00   0.481510E+01
   0.138000E+04   0.268636E-04   0.318775E-04   0.374284E+00   0.481510E+01
   0.139000E+04   0.270599E-04   0.320315E-04   0.374281E+00   0.481510E+01
   0.140000E+04   0.272571E-04   0.321857E-04   0.374277E+00   0.481510E+01
   0.141000E+04   0.274555E-04   0.323403E-04   0.374274E+00   0.481510E+01
   0.142000E+04   0.276552E-04   0.324954E-04   0.374271E+00   0.481510E+01
   0.143000E+04   0.278563E-04   0.326514E-04   0.374267E+00   0.481510E+01
   0.144000E+04   0.280589E-04   0.328084E-04   0.374264E+00   0.481510E+01
   0.145000E+04   0.282632E-04   0.329666E-04   0.374261E+00   0.481510E+01
   0.146000E+04   0.284693E-04   0.331262E-04   0.374258E+00   0.481510E+01
   0.147000E+04   0.286774E-04   0.332875E-04   0.374255E+00   0.481510E+01
   0.148000E+04   0.288876E-04   0.334507E-04   0.374252E+00   0.481510E+01
   0.149000E+04   0.291000E-04   0.336160E-04   0.374249E+00   0.481510E+01
   0.150000E+04   0.293148E-04   0.337836E-04   0.374246E+00   0.481510E+01
   0.151000E+04   0.295321E-04   0.339538E-04   0.374244E+00   0.481510E+01
   0.152000E+04   0.297520E-04   0.341268E-04   0.374241E+00   0.481510E+01
   0.153000E+04   0.299748E-04   0.343029E-04   0.374238E+00   0.481510E+01
   0.154000E+04   0.302004E-04   0.344822E-04   0.374236E+00   0.481510E+01
   0.155000E+04   0.304290E-04   0.347441E-04   0.374233E+00   0.481510E+01
   0.156000E+04   0.306608E-04   0.352286E-04   0.374230E+00   0.481510E+01
   0.157000E+04   0.308959E-04   0.357280E-04   0.374228E+00   0.481510E+01
   0.158000E+04   0.311343E-04   0.362425E-04   0.374225E+00   0.481510E+01
   0.159000E+04   0.313762E-04   0.367723E-04   0.374223E+00   0.481510E+01
   0.160000E+04   0.316217E-04   0.373177E-04   0.374221E+00   0.481510E+01
   0.161000E+04   0.318709E-04   0.378789E-04   0.374218E+00   0.481510E+01
   0.162000E+04   0.321239E-04   0.384560E-04   0.374216E+00   0.481510E+01
   0.163000E+04   0.323807E-04   0.390492E-04   0.374214E+00   0.481510E+01
   0.164000E+04   0.326415E-04   0.396587E-04   0.374212E+00   0.481510E+01
   0.165000E+04   0.329062E-04   0.402846E-04   0.374210E+00   0.481510E+01
   0.166000E+04   0.331751E-04   0.409271E-04   0.374207E+00   0.481510E+01
   0.167000E+04   0.334482E-04   0.415864E-04   0.374205E+00   0.481510E+01
   0.168000E+04   0.337255E-04   0.422624E-04   0.374203E+00   0.481510E+01
   0.169000E+04   0.340070E-04   0.429554E-04   0.374201E+00   0.481510E+01
   0.170000E+04   0.342930E-04   0.436655E-04   0.374199E+00   0.481510E+01
   0.171000E+04   0.345833E-04   0.443925E-04   0.374197E+00   0.481510E+01
   0.172000E+04   0.348780E-04   0.451367E-04   0.374195E+00   0.481510E+01
   0.173000E+04   0.351772E-04   0.458980E-04   0.374193E+00   0.481510E+01
   0.174000E+04   0.354809E-04   0.466764E-04   0.374191E+00   0.481510E+01
   0.175000E+04   0.357891E-04   0.474720E-04   0.374189E+00   0.481510E+01
   0.176000E+04   0.361019E-04   0.482846E-04   0.374187E+00   0.481510E+01
   0.177000E+04   0.364193E-04   0.491143E-04   0.374185E+00   0.481510E+01
   0.178000E+04   0.367413E-04   0.499609E-04   0.374183E+00   0.481510E+01
   0.179000E+04   0.370679E-04   0.508245E-04   0.374181E+00   0.481510E+01
   0.180000E+04   0.373982E-04   0.517015E-04   0.374178E+00   0.481510E+01
   0.181000E+04   0.377341E-04   0.525984E-04   0.374178E+00   0.481510E+01
   0.182000E+04   0.380738E-04   0.535090E-04   0.374174E+00   0.481510E+01
   0.183000E+04   0.384192E-04   0.544400E-04   0.374174E+00   0.481510E+01
   0.184000E+04   0.387695E-04   0.553884E-04   0.374172E+00   0.481510E+01
   0.185000E+04   0.391246E-04   0.563540E-04   0.374171E+00   0.481510E+01
   0.186000E+04   0.394844E-04   0.573361E-04   0.374169E+00   0.481510E+01
   0.187000E+04   0.398488E-04   0.583344E-04   0.374168E+00   0.481510E+01
   0.188000E+04   0.402178E-04   0.593485E-04   0.374166E+00   0.481510E+01
   0.189000E+04   0.405913E-04   0.603781E-04   0.374164E+00   0.481510E+01
   0.190000E+04   0.409693E-04   0.614231E-04   0.374162E+00   0.481510E+01
   0.191000E+04   0.413517E-04   0.624832E-04   0.374161E+00   0.481510E+01
   0.192000E+04   0.417385E-04   0.635580E-04   0.374160E+00   0.481510E+01
   0.193000E+04   0.421298E-04   0.646475E-04   0.374158E+00   0.481510E+01
   0.194000E+04   0.425253E-04   0.657513E-04   0.374156E+00   0.481510E+01
   0.195000E+04   0.429251E-04   0.668693E-04   0.374155E+00   0.481510E+01
   0.196000E+04   0.433292E-04   0.680012E-04   0.374153E+00   0.481510E+01
   0.197000E+04   0.437375E-04   0.691466E-04   0.374151E+00   0.481510E+01
   0.198000E+04   0.441498E-04   0.703053E-04   0.374150E+00   0.481510E+01
   0.199000E+04   0.445663E-04   0.714771E-04   0.374149E+00   0.481510E+01
   0.200000E+04   0.449867E-04   0.726616E-04   0.374148E+00   0.481510E+01
   0.201000E+04   0.454110E-04   0.738583E-04   0.374146E+00   0.481510E+01
   0.202000E+04   0.458390E-04   0.750667E-04   0.374143E+00   0.481510E+01
   0.203000E+04   0.462707E-04   0.762863E-04   0.374143E+00   0.481510E+01
   0.204000E+04   0.467059E-04   0.775166E-04   0.374143E+00   0.481510E+01
   0.205000E+04   0.471444E-04   0.787568E-04   0.374142E+00   0.481510E+01
   0.206000E+04   0.475858E-04   0.800052E-04   0.374139E+00   0.481510E+01
   0.207000E+04   0.480295E-04   0.812602E-04   0.374138E+00   0.481510E+01
   0.208000E+04   0.484730E-04   0.825118E-04   0.374138E+00   0.481510E+01
   0.209000E+04   0.489175E-04   0.837647E-04   0.374138E+00   0.481510E+01
   0.210000E+04   0.493623E-04   0.850164E-04   0.374140E+00   0.481510E+01
   0.211000E+04   0.498063E-04   0.862631E-04   0.374141E+00   0.481510E+01
   0.212000E+04   0.502485E-04   0.875011E-04   0.374144E+00   0.481510E+01
   0.213000E+04   0.506879E-04   0.887275E-04   0.374149E+00   0.481510E+01
   0.214000E+04   0.511245E-04   0.899417E-04   0.374153E+00   0.481510E+01
   0.215000E+04   0.515585E-04   0.911456E-04   0.374153E+00   0.481510E+01
   0.216000E+04   0.519900E-04   0.923397E-04   0.374156E+00   0.481510E+01
   0.217000E+04   0.524214E-04   0.935335E-04   0.374157E+00   0.481510E+01
   0.218000E+04   0.528530E-04   0.947275E-04   0.374156E+00   0.481510E+01
   0.219000E+04   0.532861E-04   0.959274E-04   0.374153E+00   0.481510E+01
   0.220000E+04   0.537221E-04   0.971386E-04   0.374152E+00   0.481510E+01
   0.221000E+04   0.541624E-04   0.983656E-04   0.374151E+00   0.481510E+01
   0.222000E+04   0.546079E-04   0.996124E-04   0.374151E+00   0.481510E+01
   0.223000E+04   0.550599E-04   0.100883E-03   0.374150E+00   0.481510E+01
   0.224000E+04   0.555190E-04   0.102180E-03   0.374148E+00   0.481510E+01
   0.225000E+04   0.559858E-04   0.103504E-03   0.374146E+00   0.481510E+01
   0.226000E+04   0.564603E-04   0.104856E-03   0.374146E+00   0.481510E+01
   0.227000E+04   0.569425E-04   0.106235E-03   0.374146E+00   0.481510E+01
   0.228000E+04   0.574325E-04   0.107641E-03   0.374145E+00   0.481510E+01
   0.229000E+04   0.579300E-04   0.109071E-03   0.374144E+00   0.481510E+01
   0.230000E+04   0.584345E-04   0.110524E-03   0.374142E+00   0.481510E+01
   0.231000E+04   0.589454E-04   0.111998E-03   0.374142E+00   0.481510E+01
   0.232000E+04   0.594622E-04   0.113489E-03   0.374142E+00   0.481510E+01
   0.233000E+04   0.599847E-04   0.114996E-03   0.374141E+00   0.481510E+01
   0.234000E+04   0.605122E-04   0.116516E-03   0.374140E+00   0.481510E+01
   0.235000E+04   0.610423E-04   0.118040E-03   0.374139E+00   0.481510E+01
   0.236000E+04   0.615756E-04   0.119570E-03   0.374142E+00   0.481510E+01
   0.237000E+04   0.621112E-04   0.121104E-03   0.374143E+00   0.481510E+01
   0.238000E+04   0.626487E-04   0.122638E-03   0.374143E+00   0.481510E+01
   0.239000E+04   0.631869E-04   0.124169E-03   0.374145E+00   0.481510E+01
   0.240000E+04   0.637253E-04   0.125695E-03   0.374147E+00   0.481510E+01
   0.241000E+04   0.642635E-04   0.127214E-03   0.374150E+00   0.481510E+01
   0.242000E+04   0.648015E-04   0.128728E-03   0.374153E+00   0.481510E+01
   0.243000E+04   0.653397E-04   0.130237E-03   0.374152E+00   0.481510E+01
   0.244000E+04   0.658799E-04   0.131749E-03   0.374154E+00   0.481510E+01
   0.245000E+04   0.664212E-04   0.133261E-03   0.374153E+00   0.481510E+01
   0.246000E+04   0.669644E-04   0.134776E-03   0.374150E+00   0.481510E+01
   0.247000E+04   0.675104E-04   0.136296E-03   0.374148E+00   0.481510E+01
   0.248000E+04   0.680596E-04   0.137825E-03   0.374147E+00   0.481510E+01
   0.249000E+04   0.686127E-04   0.139364E-03   0.374147E+00   0.481510E+01
   0.250000E+04   0.691702E-04   0.140915E-03   0.374146E+00   0.481510E+01
   0.251000E+04   0.697327E-04   0.142480E-03   0.374144E+00   0.481510E+01
   0.252000E+04   0.703006E-04   0.144060E-03   0.374142E+00   0.481510E+01
   0.253000E+04   0.708738E-04   0.145655E-03   0.374141E+00   0.481510E+01
   0.254000E+04   0.714517E-04   0.147262E-03   0.374140E+00   0.481510E+01
   0.255000E+04   0.720342E-04   0.148881E-03   0.374140E+00   0.481510E+01
   0.256000E+04   0.726195E-04   0.150505E-03   0.374138E+00   0.481510E+01
   0.257000E+04   0.732105E-04   0.152144E-03   0.374138E+00   0.481510E+01
   0.258000E+04   0.738053E-04   0.153791E-03   0.374137E+00   0.481510E+01
   0.259000E+04   0.744017E-04   0.155438E-03   0.374134E+00   0.481510E+01
   0.260000E+04   0.750028E-04   0.157097E-03   0.374134E+00   0.481510E+01
   0.261000E+04   0.756067E-04   0.158759E-03   0.374133E+00   0.481510E+01
   0.262000E+04   0.762111E-04   0.160418E-03   0.374130E+00   0.481510E+01
   0.263000E+04   0.768193E-04   0.162084E-03   0.374130E+00   0.481510E+01
   0.264000E+04   0.774294E-04   0.163752E-03   0.374129E+00   0.481510E+01
   0.265000E+04   0.780392E-04   0.165412E-03   0.374127E+00   0.481510E+01
   0.266000E+04   0.786505E-04   0.167071E-03   0.374126E+00   0.481510E+01
   0.267000E+04   0.792621E-04   0.168727E-03   0.374125E+00   0.481510E+01
   0.268000E+04   0.798719E-04   0.170370E-03   0.374131E+00   0.481510E+01
   0.269000E+04   0.804781E-04   0.171997E-03   0.374136E+00   0.481510E+01
   0.270000E+04   0.810801E-04   0.173604E-03   0.374137E+00   0.481510E+01
   0.271000E+04   0.816770E-04   0.175188E-03   0.374137E+00   0.481510E+01
   0.272000E+04   0.822677E-04   0.176746E-03   0.374140E+00   0.481510E+01
   0.273000E+04   0.828497E-04   0.178271E-03   0.374148E+00   0.481510E+01
   0.274000E+04   0.834287E-04   0.179782E-03   0.374144E+00   0.481510E+01
   0.275000E+04   0.840032E-04   0.181276E-03   0.374142E+00   0.481510E+01
   0.276000E+04   0.845745E-04   0.182756E-03   0.374140E+00   0.481510E+01
   0.277000E+04   0.851436E-04   0.184227E-03   0.374139E+00   0.481510E+01
   0.278000E+04   0.857120E-04   0.185696E-03   0.374138E+00   0.481510E+01
   0.279000E+04   0.862811E-04   0.187166E-03   0.374136E+00   0.481510E+01
   0.280000E+04   0.868515E-04   0.188641E-03   0.374134E+00   0.481510E+01
   0.281000E+04   0.874223E-04   0.190118E-03   0.374132E+00   0.481510E+01
   0.282000E+04   0.879959E-04   0.191604E-03   0.374131E+00   0.481510E+01
   0.283000E+04   0.885723E-04   0.193099E-03   0.374133E+00   0.481510E+01
   0.284000E+04   0.891512E-04   0.194603E-03   0.374133E+00   0.481510E+01
   0.285000E+04   0.897303E-04   0.196107E-03   0.374135E+00   0.481510E+01
   0.286000E+04   0.903078E-04   0.197605E-03   0.374138E+00   0.481510E+01
   0.287000E+04   0.908825E-04   0.199091E-03   0.374143E+00   0.481510E+01
   0.288000E+04   0.914542E-04   0.200567E-03   0.374145E+00   0.481510E+01
   0.289000E+04   0.920235E-04   0.202032E-03   0.374144E+00   0.481510E+01
   0.290000E+04   0.925902E-04   0.203488E-03   0.374143E+00   0.481510E+01
   0.291000E+04   0.931556E-04   0.204939E-03   0.374147E+00   0.481510E+01
   0.292000E+04   0.937168E-04   0.206376E-03   0.374150E+00   0.481510E+01
   0.293000E+04   0.942745E-04   0.207800E-03   0.374151E+00   0.481510E+01
   0.294000E+04   0.948292E-04   0.209213E-03   0.374146E+00   0.481510E+01
   0.295000E+04   0.953844E-04   0.210629E-03   0.374148E+00   0.481510E+01
   0.296000E+04   0.959399E-04   0.212046E-03   0.374146E+00   0.481510E+01
   0.297000E+04   0.964971E-04   0.213469E-03   0.374143E+00   0.481510E+01
   0.298000E+04   0.970570E-04   0.214902E-03   0.374141E+00   0.481510E+01
   0.299000E+04   0.976200E-04   0.216346E-03   0.374139E+00   0.481510E+01
   0.300000E+04   0.981864E-04   0.217803E-03   0.374138E+00   0.481510E+01
   0.301000E+04   0.987568E-04   0.219273E-03   0.374137E+00   0.481510E+01
   0.302000E+04   0.993317E-04   0.220758E-03   0.374135E+00   0.481510E+01
   0.303000E+04   0.999109E-04   0.222257E-03   0.374133E+00   0.481510E+01
   0.304000E+04   0.100492E-03   0.223762E-03   0.374130E+00   0.481510E+01
   0.305000E+04   0.101077E-03   0.225277E-03   0.374131E+00   0.481510E+01
   0.306000E+04   0.101664E-03   0.226796E-03   0.374133E+00   0.481510E+01
   0.307000E+04   0.102251E-03   0.228314E-03   0.374134E+00   0.481510E+01
   0.308000E+04   0.102836E-03   0.229824E-03   0.374135E+00   0.481510E+01
   0.309000E+04   0.103417E-03   0.231316E-03   0.374138E+00   0.481510E+01
   0.310000E+04   0.103992E-03   0.232785E-03   0.374142E+00   0.481510E+01
   0.311000E+04   0.104561E-03   0.234232E-03   0.374145E+00   0.481510E+01
   0.312000E+04   0.105125E-03   0.235658E-03   0.374143E+00   0.481510E+01
   0.313000E+04   0.105684E-03   0.237066E-03   0.374142E+00   0.481510E+01
   0.314000E+04   0.106240E-03   0.238461E-03   0.374145E+00   0.481510E+01
   0.315000E+04   0.106789E-03   0.239833E-03   0.374149E+00   0.481510E+01
   0.316000E+04   0.107332E-03   0.241184E-03   0.374150E+00   0.481510E+01
   0.317000E+04   0.107870E-03   0.242518E-03   0.374145E+00   0.481510E+01
   0.318000E+04   0.108407E-03   0.243850E-03   0.374146E+00   0.481510E+01
   0.319000E+04   0.108942E-03   0.245177E-03   0.374144E+00   0.481510E+01
   0.320000E+04   0.109478E-03   0.246507E-03   0.374141E+00   0.481510E+01
   0.321000E+04   0.110016E-03   0.247843E-03   0.374138E+00   0.481510E+01
   0.322000E+04   0.110555E-03   0.249188E-03   0.374137E+00   0.481510E+01
   0.323000E+04   0.111097E-03   0.250542E-03   0.374136E+00   0.481510E+01
   0.324000E+04   0.111642E-03   0.251908E-03   0.374135E+00   0.481510E+01
   0.325000E+04   0.112190E-03   0.253286E-03   0.374132E+00   0.481510E+01
   0.326000E+04   0.112742E-03   0.254677E-03   0.374130E+00   0.481510E+01
   0.327000E+04   0.113296E-03   0.256074E-03   0.374127E+00   0.481510E+01
   0.328000E+04   0.113852E-03   0.257478E-03   0.374128E+00   0.481510E+01
   0.329000E+04   0.114408E-03   0.258884E-03   0.374130E+00   0.481510E+01
   0.330000E+04   0.114965E-03   0.260288E-03   0.374131E+00   0.481510E+01
   0.331000E+04   0.115519E-03   0.261682E-03   0.374132E+00   0.481510E+01
   0.332000E+04   0.116067E-03   0.263056E-03   0.374134E+00   0.481510E+01
   0.333000E+04   0.116608E-03   0.264404E-03   0.374139E+00   0.481510E+01
   0.334000E+04   0.117142E-03   0.265725E-03   0.374142E+00   0.481510E+01
   0.335000E+04   0.117669E-03   0.267023E-03   0.374141E+00   0.481510E+01
   0.336000E+04   0.118191E-03   0.268300E-03   0.374139E+00   0.481510E+01
   0.337000E+04   0.118707E-03   0.269561E-03   0.374142E+00   0.481510E+01
   0.338000E+04   0.119216E-03   0.270796E-03   0.374145E+00   0.481510E+01
   0.339000E+04   0.119717E-03   0.272007E-03   0.374147E+00   0.481510E+01
   0.340000E+04   0.120213E-03   0.273199E-03   0.374142E+00   0.481510E+01
   0.341000E+04   0.120706E-03   0.274387E-03   0.374143E+00   0.481510E+01
   0.342000E+04   0.121197E-03   0.275570E-03   0.374141E+00   0.481510E+01
   0.343000E+04   0.121688E-03   0.276754E-03   0.374138E+00   0.481510E+01
   0.344000E+04   0.122181E-03   0.277944E-03   0.374135E+00   0.481510E+01
   0.345000E+04   0.122674E-03   0.279144E-03   0.374133E+00   0.481510E+01
   0.346000E+04   0.123170E-03   0.280353E-03   0.374132E+00   0.481510E+01
   0.347000E+04   0.123669E-03   0.281574E-03   0.374131E+00   0.481510E+01
   0.348000E+04   0.124171E-03   0.282809E-03   0.374129E+00   0.481510E+01
   0.349000E+04   0.124677E-03   0.284058E-03   0.374127E+00   0.481510E+01
   0.350000E+04   0.125185E-03   0.285317E-03   0.374125E+00   0.481510E+01
   0.351000E+04   0.125695E-03   0.286583E-03   0.374124E+00   0.481510E+01
   0.352000E+04   0.126207E-03   0.287855E-03   0.374123E+00   0.481510E+01
   0.353000E+04   0.126721E-03   0.289132E-03   0.374122E+00   0.481510E+01
   0.354000E+04   0.127234E-03   0.290408E-03   0.374121E+00   0.481510E+01
   0.355000E+04   0.127746E-03   0.291679E-03   0.374121E+00   0.481510E+01
   0.356000E+04   0.128254E-03   0.292934E-03   0.374120E+00   0.481510E+01
   0.357000E+04   0.128759E-03   0.294177E-03   0.374121E+00   0.481510E+01
   0.358000E+04   0.129260E-03   0.295406E-03   0.374120E+00   0.481510E+01
   0.359000E+04   0.129754E-03   0.296611E-03   0.374123E+00   0.481510E+01
   0.360000E+04   0.130239E-03   0.297784E-03   0.374128E+00   0.481510E+01
   0.361000E+04   0.130714E-03   0.298923E-03   0.374134E+00   0.481510E+01
   0.362000E+04   0.131179E-03   0.300026E-03   0.374135E+00   0.481510E+01
   0.363000E+04   0.131636E-03   0.301105E-03   0.374137E+00   0.481510E+01
   0.364000E+04   0.132085E-03   0.302156E-03   0.374135E+00   0.481510E+01
   0.365000E+04   0.132527E-03   0.303187E-03   0.374132E+00   0.481510E+01
   0.366000E+04   0.132965E-03   0.304205E-03   0.374128E+00   0.481510E+01
   0.367000E+04   0.133400E-03   0.305216E-03   0.374127E+00   0.481510E+01
   0.368000E+04   0.133832E-03   0.306222E-03   0.374126E+00   0.481510E+01
   0.369000E+04   0.134264E-03   0.307230E-03   0.374125E+00   0.481510E+01
   0.370000E+04   0.134697E-03   0.308246E-03   0.374123E+00   0.481510E+01
   0.371000E+04   0.135132E-03   0.309274E-03   0.374120E+00   0.481510E+01
   0.372000E+04   0.135569E-03   0.310309E-03   0.374117E+00   0.481510E+01
   0.373000E+04   0.136008E-03   0.311356E-03   0.374117E+00   0.481510E+01
   0.374000E+04   0.136448E-03   0.312411E-03   0.374121E+00   0.481510E+01
   0.375000E+04   0.136888E-03   0.313469E-03   0.374122E+00   0.481510E+01
   0.376000E+04   0.137327E-03   0.314525E-03   0.374122E+00   0.481510E+01
   0.377000E+04   0.137762E-03   0.315569E-03   0.374126E+00   0.481510E+01
   0.378000E+04   0.138191E-03   0.316594E-03   0.374129E+00   0.481510E+01
   0.379000E+04   0.138613E-03   0.317598E-03   0.374134E+00   0.481510E+01
   0.380000E+04   0.139028E-03   0.318580E-03   0.374135E+00   0.481510E+01
   0.381000E+04   0.139439E-03   0.319551E-03   0.374136E+00   0.481510E+01
   0.382000E+04   0.139845E-03   0.320507E-03   0.374134E+00   0.481510E+01
   0.383000E+04   0.140247E-03   0.321453E-03   0.374131E+00   0.481510E+01
   0.384000E+04   0.140648E-03   0.322397E-03   0.374128E+00   0.481510E+01
   0.385000E+04   0.141048E-03   0.323342E-03   0.374126E+00   0.481510E+01
   0.386000E+04   0.141448E-03   0.324290E-03   0.374125E+00   0.481510E+01
   0.387000E+04   0.141850E-03   0.325246E-03   0.374124E+00   0.481510E+01
   0.388000E+04   0.142254E-03   0.326216E-03   0.374122E+00   0.481510E+01
   0.389000E+04   0.142662E-03   0.327202E-03   0.374119E+00   0.481510E+01
   0.390000E+04   0.143073E-03   0.328199E-03   0.374115E+00   0.481510E+01
   0.391000E+04   0.143488E-03   0.329211E-03   0.374116E+00   0.481510E+01
   0.392000E+04   0.143905E-03   0.330231E-03   0.374120E+00   0.481510E+01
   0.393000E+04   0.144322E-03   0.331256E-03   0.374121E+00   0.481510E+01