title="breakthrough data set at     5 wells"
variables="time(days)","cavg","cpk","upk","zswi"
zone i=     1295
   0.100000E+02   0.329553E-11   0.533220E-11   0.458105E+00   0.486400E+01
   0.200000E+02   0.872990E-11   0.142047E-10   0.368942E+00   0.483887E+01
   0.300000E+02   0.189598E-10   0.307806E-10   0.368440E+00   0.483887E+01
   0.400000E+02   0.370775E-10   0.599243E-10   0.368430E+00   0.483887E+01
   0.500000E+02   0.678337E-10   0.109055E-09   0.368471E+00   0.483887E+01
   0.600000E+02   0.118395E-09   0.189276E-09   0.368541E+00   0.483887E+01
   0.700000E+02   0.199348E-09   0.318452E-09   0.368622E+00   0.483887E+01
   0.800000E+02   0.325655E-09   0.524739E-09   0.368726E+00   0.483887E+01
   0.900000E+02   0.517975E-09   0.841220E-09   0.368834E+00   0.483887E+01
   0.100000E+03   0.803847E-09   0.131475E-08   0.368945E+00   0.483887E+01
   0.110000E+03   0.121882E-08   0.200593E-08   0.369056E+00   0.483887E+01
   0.120000E+03   0.180459E-08   0.298576E-08   0.369057E+00   0.483887E+01
   0.130000E+03   0.261646E-08   0.434837E-08   0.369165E+00   0.483887E+01
   0.140000E+03   0.371798E-08   0.620137E-08   0.369272E+00   0.483887E+01
   0.150000E+03   0.518235E-08   0.866793E-08   0.369377E+00   0.483887E+01
   0.160000E+03   0.709182E-08   0.118852E-07   0.369479E+00   0.483887E+01
   0.170000E+03   0.953662E-08   0.160019E-07   0.369579E+00   0.483887E+01
   0.180000E+03   0.126136E-07   0.211756E-07   0.369674E+00   0.483887E+01
   0.190000E+03   0.164247E-07   0.275689E-07   0.369767E+00   0.483887E+01
   0.200000E+03   0.210750E-07   0.353460E-07   0.369857E+00   0.483887E+01
   0.210000E+03   0.266708E-07   0.446686E-07   0.369944E+00   0.483887E+01
   0.220000E+03   0.333175E-07   0.556920E-07   0.370028E+00   0.483887E+01
   0.230000E+03   0.411176E-07   0.685606E-07   0.370110E+00   0.483887E+01
   0.240000E+03   0.501685E-07   0.834042E-07   0.370189E+00   0.483887E+01
   0.250000E+03   0.605602E-07   0.100333E-06   0.370266E+00   0.483887E+01
   0.260000E+03   0.723737E-07   0.119436E-06   0.370340E+00   0.483887E+01
   0.270000E+03   0.856786E-07   0.140775E-06   0.370413E+00   0.483887E+01
   0.280000E+03   0.100532E-06   0.164383E-06   0.370483E+00   0.483887E+01
   0.290000E+03   0.116978E-06   0.190266E-06   0.370551E+00   0.483887E+01
   0.300000E+03   0.135046E-06   0.218398E-06   0.370617E+00   0.483887E+01
   0.310000E+03   0.154752E-06   0.248722E-06   0.370681E+00   0.483887E+01
   0.320000E+03   0.176097E-06   0.281156E-06   0.370743E+00   0.483887E+01
   0.330000E+03   0.199071E-06   0.315591E-06   0.370804E+00   0.483887E+01
   0.340000E+03   0.223649E-06   0.351894E-06   0.370863E+00   0.483887E+01
   0.350000E+03   0.249800E-06   0.389913E-06   0.370920E+00   0.483887E+01
   0.360000E+03   0.277479E-06   0.429476E-06   0.370975E+00   0.483887E+01
   0.370000E+03   0.306633E-06   0.470395E-06   0.371030E+00   0.483887E+01
   0.380000E+03   0.337203E-06   0.512468E-06   0.371082E+00   0.483887E+01
   0.390000E+03   0.369119E-06   0.555478E-06   0.371134E+00   0.483887E+01
   0.400000E+03   0.402307E-06   0.599196E-06   0.371183E+00   0.483887E+01
   0.410000E+03   0.436681E-06   0.643380E-06   0.371232E+00   0.483887E+01
   0.420000E+03   0.472152E-06   0.687779E-06   0.371280E+00   0.483887E+01
   0.430000E+03   0.508623E-06   0.732133E-06   0.371326E+00   0.483887E+01
   0.440000E+03   0.545992E-06   0.776175E-06   0.371371E+00   0.483887E+01
   0.450000E+03   0.584153E-06   0.819637E-06   0.371415E+00   0.483887E+01
   0.460000E+03   0.622999E-06   0.862255E-06   0.371459E+00   0.483887E+01
   0.470000E+03   0.662423E-06   0.903769E-06   0.371501E+00   0.483887E+01
   0.480000E+03   0.702324E-06   0.951437E-06   0.371542E+00   0.483887E+01
   0.490000E+03   0.742602E-06   0.100051E-05   0.371582E+00   0.483887E+01
   0.500000E+03   0.783166E-06   0.104899E-05   0.371621E+00   0.483887E+01
   0.510000E+03   0.823932E-06   0.109667E-05   0.371659E+00   0.483887E+01
   0.520000E+03   0.864822E-06   0.114332E-05   0.371696E+00   0.483887E+01
   0.530000E+03   0.905761E-06   0.118875E-05   0.371733E+00   0.483887E+01
   0.540000E+03   0.946680E-06   0.123277E-05   0.371768E+00   0.483887E+01
   0.550000E+03   0.987509E-06   0.127516E-05   0.371803E+00   0.483887E+01
   0.560000E+03   0.102818E-05   0.131577E-05   0.371837E+00   0.483887E+01
   0.570000E+03   0.106861E-05   0.135442E-05   0.371870E+00   0.483887E+01
   0.580000E+03   0.110874E-05   0.139094E-05   0.371902E+00   0.483887E+01
   0.590000E+03   0.114848E-05   0.142520E-05   0.371934E+00   0.483887E+01
   0.600000E+03   0.118776E-05   0.145707E-05   0.371965E+00   0.483887E+01
   0.610000E+03   0.122649E-05   0.148644E-05   0.371995E+00   0.483887E+01
   0.620000E+03   0.126461E-05   0.151320E-05   0.372025E+00   0.483887E+01
   0.630000E+03   0.130206E-05   0.158375E-05   0.372054E+00   0.483887E+01
   0.640000E+03   0.133879E-05   0.165630E-05   0.372083E+00   0.483887E+01
   0.650000E+03   0.137477E-05   0.173058E-05   0.372111E+00   0.483887E+01
   0.660000E+03   0.141000E-05   0.180665E-05   0.372139E+00   0.483887E+01
   0.670000E+03   0.144449E-05   0.188463E-05   0.372166E+00   0.483887E+01
   0.680000E+03   0.147829E-05   0.196476E-05   0.372192E+00   0.483887E+01
   0.690000E+03   0.151148E-05   0.204735E-05   0.372218E+00   0.483887E+01
   0.700000E+03   0.154418E-05   0.213283E-05   0.372244E+00   0.483887E+01
   0.710000E+03   0.157650E-05   0.222171E-05   0.372269E+00   0.483887E+01
   0.720000E+03   0.160862E-05   0.231461E-05   0.372293E+00   0.483887E+01
   0.730000E+03   0.164072E-05   0.241226E-05   0.372317E+00   0.483887E+01
   0.740000E+03   0.167300E-05   0.251545E-05   0.372341E+00   0.483887E+01
   0.750000E+03   0.170569E-05   0.262502E-05   0.372364E+00   0.483887E+01
   0.760000E+03   0.173899E-05   0.274188E-05   0.372386E+00   0.483887E+01
   0.770000E+03   0.177313E-05   0.286691E-05   0.372409E+00   0.483887E+01
   0.780000E+03   0.180830E-05   0.300100E-05   0.372431E+00   0.483887E+01
   0.790000E+03   0.184467E-05   0.314495E-05   0.372452E+00   0.483887E+01
   0.800000E+03   0.188238E-05   0.329948E-05   0.372473E+00   0.483887E+01
   0.810000E+03   0.192151E-05   0.346515E-05   0.372494E+00   0.483887E+01
   0.820000E+03   0.196206E-05   0.364237E-05   0.372515E+00   0.483887E+01
   0.830000E+03   0.200401E-05   0.383132E-05   0.372535E+00   0.483887E+01
   0.840000E+03   0.204721E-05   0.403197E-05   0.372555E+00   0.483887E+01
   0.850000E+03   0.209147E-05   0.424403E-05   0.372574E+00   0.483887E+01
   0.860000E+03   0.213650E-05   0.446695E-05   0.372594E+00   0.483887E+01
   0.870000E+03   0.218194E-05   0.469990E-05   0.372613E+00   0.483887E+01
   0.880000E+03   0.222734E-05   0.494182E-05   0.372632E+00   0.483887E+01
   0.890000E+03   0.227220E-05   0.519140E-05   0.372650E+00   0.483887E+01
   0.900000E+03   0.231598E-05   0.544713E-05   0.372669E+00   0.483887E+01
   0.910000E+03   0.235806E-05   0.570732E-05   0.372687E+00   0.483887E+01
   0.920000E+03   0.239782E-05   0.597014E-05   0.372705E+00   0.483887E+01
   0.930000E+03   0.243465E-05   0.623371E-05   0.372722E+00   0.483887E+01
   0.940000E+03   0.246792E-05   0.649611E-05   0.372739E+00   0.483887E+01
   0.950000E+03   0.249706E-05   0.675546E-05   0.372756E+00   0.483887E+01
   0.960000E+03   0.252154E-05   0.701000E-05   0.372773E+00   0.483887E+01
   0.970000E+03   0.254093E-05   0.725815E-05   0.372790E+00   0.483887E+01
   0.980000E+03   0.255487E-05   0.749853E-05   0.372806E+00   0.483887E+01
   0.990000E+03   0.256313E-05   0.773011E-05   0.372822E+00   0.483887E+01
   0.100000E+04   0.256562E-05   0.795216E-05   0.372837E+00   0.483887E+01
   0.101000E+04   0.256235E-05   0.816434E-05   0.372853E+00   0.483887E+01
   0.102000E+04   0.255349E-05   0.836673E-05   0.372868E+00   0.483887E+01
   0.103000E+04   0.253936E-05   0.855980E-05   0.372883E+00   0.483887E+01
   0.104000E+04   0.252039E-05   0.874439E-05   0.372897E+00   0.483887E+01
   0.105000E+04   0.249713E-05   0.892174E-05   0.372911E+00   0.483887E+01
   0.106000E+04   0.247022E-05   0.909337E-05   0.372925E+00   0.483887E+01
   0.107000E+04   0.244040E-05   0.926106E-05   0.372939E+00   0.483887E+01
   0.108000E+04   0.240844E-05   0.942676E-05   0.372953E+00   0.483887E+01
   0.109000E+04   0.237515E-05   0.959254E-05   0.372966E+00   0.483887E+01
   0.110000E+04   0.234132E-05   0.976048E-05   0.372979E+00   0.483887E+01
   0.111000E+04   0.230774E-05   0.993263E-05   0.372992E+00   0.483887E+01
   0.112000E+04   0.227514E-05   0.101109E-04   0.373005E+00   0.483887E+01
   0.113000E+04   0.224416E-05   0.102970E-04   0.373017E+00   0.483887E+01
   0.114000E+04   0.221535E-05   0.104925E-04   0.373030E+00   0.483887E+01
   0.115000E+04   0.218918E-05   0.106984E-04   0.373042E+00   0.483887E+01
   0.116000E+04   0.216597E-05   0.109158E-04   0.373055E+00   0.483887E+01
   0.117000E+04   0.214593E-05   0.111450E-04   0.373067E+00   0.483887E+01
   0.118000E+04   0.212914E-05   0.113861E-04   0.373079E+00   0.483887E+01
   0.119000E+04   0.211556E-05   0.116389E-04   0.373091E+00   0.483887E+01
   0.120000E+04   0.210503E-05   0.119026E-04   0.373103E+00   0.483887E+01
   0.121000E+04   0.209730E-05   0.121763E-04   0.373114E+00   0.483887E+01
   0.122000E+04   0.209201E-05   0.124584E-04   0.373126E+00   0.483887E+01
   0.123000E+04   0.208874E-05   0.127473E-04   0.373137E+00   0.483887E+01
   0.124000E+04   0.208698E-05   0.130409E-04   0.373149E+00   0.483887E+01
   0.125000E+04   0.208624E-05   0.133370E-04   0.373160E+00   0.483887E+01
   0.126000E+04   0.208598E-05   0.136334E-04   0.373171E+00   0.483887E+01
   0.127000E+04   0.208571E-05   0.139274E-04   0.373182E+00   0.483887E+01
   0.128000E+04   0.208495E-05   0.142169E-04   0.373193E+00   0.483887E+01
   0.129000E+04   0.208331E-05   0.144995E-04   0.373203E+00   0.483887E+01
   0.130000E+04   0.208048E-05   0.147732E-04   0.373214E+00   0.483887E+01
   0.131000E+04   0.207622E-05   0.150362E-04   0.373224E+00   0.483887E+01
   0.132000E+04   0.207041E-05   0.152869E-04   0.373234E+00   0.483887E+01
   0.133000E+04   0.206303E-05   0.155242E-04   0.373244E+00   0.483887E+01
   0.134000E+04   0.205413E-05   0.157473E-04   0.373254E+00   0.483887E+01
   0.135000E+04   0.204385E-05   0.159558E-04   0.373263E+00   0.483887E+01
   0.136000E+04   0.203241E-05   0.161495E-04   0.373273E+00   0.483887E+01
   0.137000E+04   0.202007E-05   0.163287E-04   0.373282E+00   0.483887E+01
   0.138000E+04   0.200715E-05   0.164937E-04   0.373292E+00   0.483887E+01
   0.139000E+04   0.199398E-05   0.166452E-04   0.373301E+00   0.483887E+01
   0.140000E+04   0.198094E-05   0.167841E-04   0.373310E+00   0.483887E+01
   0.141000E+04   0.196839E-05   0.169114E-04   0.373318E+00   0.483887E+01
   0.142000E+04   0.195672E-05   0.170283E-04   0.373327E+00   0.483887E+01
   0.143000E+04   0.194629E-05   0.171358E-04   0.373336E+00   0.483887E+01
   0.144000E+04   0.193749E-05   0.172352E-04   0.373344E+00   0.483887E+01
   0.145000E+04   0.193065E-05   0.173278E-04   0.373353E+00   0.483887E+01
   0.146000E+04   0.192612E-05   0.174149E-04   0.373361E+00   0.483887E+01
   0.147000E+04   0.192421E-05   0.174976E-04   0.373369E+00   0.483887E+01
   0.148000E+04   0.192524E-05   0.175772E-04   0.373377E+00   0.483887E+01
   0.149000E+04   0.192947E-05   0.176549E-04   0.373385E+00   0.483887E+01
   0.150000E+04   0.193717E-05   0.177317E-04   0.373393E+00   0.483887E+01
   0.151000E+04   0.194859E-05   0.178087E-04   0.373400E+00   0.483887E+01
   0.152000E+04   0.196396E-05   0.178869E-04   0.373408E+00   0.483887E+01
   0.153000E+04   0.198349E-05   0.179673E-04   0.373416E+00   0.483887E+01
   0.154000E+04   0.200738E-05   0.180508E-04   0.373423E+00   0.483887E+01
   0.155000E+04   0.203583E-05   0.181381E-04   0.373431E+00   0.483887E+01
   0.156000E+04   0.206900E-05   0.182301E-04   0.373438E+00   0.483887E+01
   0.157000E+04   0.210708E-05   0.183274E-04   0.373445E+00   0.483887E+01
   0.158000E+04   0.215021E-05   0.184309E-04   0.373452E+00   0.483887E+01
   0.159000E+04   0.219854E-05   0.185410E-04   0.373459E+00   0.483887E+01
   0.160000E+04   0.225222E-05   0.186583E-04   0.373466E+00   0.483887E+01
   0.161000E+04   0.231138E-05   0.187835E-04   0.373473E+00   0.483887E+01
   0.162000E+04   0.237614E-05   0.189169E-04   0.373480E+00   0.483887E+01
   0.163000E+04   0.244662E-05   0.190590E-04   0.373487E+00   0.483887E+01
   0.164000E+04   0.252293E-05   0.192102E-04   0.373494E+00   0.483887E+01
   0.165000E+04   0.260518E-05   0.193708E-04   0.373500E+00   0.483887E+01
   0.166000E+04   0.269345E-05   0.195411E-04   0.373507E+00   0.483887E+01
   0.167000E+04   0.278785E-05   0.197214E-04   0.373514E+00   0.483887E+01
   0.168000E+04   0.288846E-05   0.199118E-04   0.373520E+00   0.483887E+01
   0.169000E+04   0.299536E-05   0.201127E-04   0.373526E+00   0.483887E+01
   0.170000E+04   0.310862E-05   0.203240E-04   0.373533E+00   0.483887E+01
   0.171000E+04   0.322832E-05   0.205459E-04   0.373539E+00   0.483887E+01
   0.172000E+04   0.335453E-05   0.207786E-04   0.373545E+00   0.483887E+01
   0.173000E+04   0.348734E-05   0.210220E-04   0.373552E+00   0.483887E+01
   0.174000E+04   0.362681E-05   0.212763E-04   0.373558E+00   0.483887E+01
   0.175000E+04   0.377303E-05   0.215416E-04   0.373564E+00   0.483887E+01
   0.176000E+04   0.392608E-05   0.218178E-04   0.373570E+00   0.483887E+01
   0.177000E+04   0.408606E-05   0.221050E-04   0.373576E+00   0.483887E+01
   0.178000E+04   0.425308E-05   0.224034E-04   0.373581E+00   0.483887E+01
   0.179000E+04   0.442725E-05   0.227132E-04   0.373587E+00   0.483887E+01
   0.180000E+04   0.460871E-05   0.230344E-04   0.373593E+00   0.483887E+01
   0.181000E+04   0.479760E-05   0.233674E-04   0.373599E+00   0.483887E+01
   0.182000E+04   0.499410E-05   0.237124E-04   0.373604E+00   0.483887E+01
   0.183000E+04   0.519838E-05   0.240698E-04   0.373610E+00   0.483887E+01
   0.184000E+04   0.541066E-05   0.244401E-04   0.373615E+00   0.483887E+01
   0.185000E+04   0.563117E-05   0.248238E-04   0.373621E+00   0.483887E+01
   0.186000E+04   0.586015E-05   0.252215E-04   0.373626E+00   0.483887E+01
   0.187000E+04   0.609787E-05   0.256341E-04   0.373631E+00   0.483887E+01
   0.188000E+04   0.634465E-05   0.260623E-04   0.373636E+00   0.483887E+01
   0.189000E+04   0.660078E-05   0.265072E-04   0.373642E+00   0.483887E+01
   0.190000E+04   0.686661E-05   0.269697E-04   0.373647E+00   0.483887E+01
   0.191000E+04   0.714248E-05   0.274511E-04   0.373652E+00   0.483887E+01
   0.192000E+04   0.742876E-05   0.279526E-04   0.373656E+00   0.483887E+01
   0.193000E+04   0.772583E-05   0.284757E-04   0.373661E+00   0.483887E+01
   0.194000E+04   0.803406E-05   0.290217E-04   0.373666E+00   0.483887E+01
   0.195000E+04   0.835385E-05   0.295921E-04   0.373671E+00   0.483887E+01
   0.196000E+04   0.868557E-05   0.301886E-04   0.373675E+00   0.483887E+01
   0.197000E+04   0.902960E-05   0.308127E-04   0.373680E+00   0.483887E+01
   0.198000E+04   0.938629E-05   0.314660E-04   0.373685E+00   0.483887E+01
   0.199000E+04   0.975598E-05   0.321501E-04   0.373689E+00   0.483887E+01
   0.200000E+04   0.101390E-04   0.328666E-04   0.373693E+00   0.483887E+01
   0.201000E+04   0.105356E-04   0.336169E-04   0.373698E+00   0.483887E+01
   0.202000E+04   0.109461E-04   0.344025E-04   0.373702E+00   0.483887E+01
   0.203000E+04   0.113706E-04   0.352248E-04   0.373706E+00   0.483887E+01
   0.204000E+04   0.118094E-04   0.360848E-04   0.373710E+00   0.483887E+01
   0.205000E+04   0.122625E-04   0.369837E-04   0.373714E+00   0.483887E+01
   0.206000E+04   0.127300E-04   0.379224E-04   0.373718E+00   0.483887E+01
   0.207000E+04   0.132121E-04   0.389018E-04   0.373722E+00   0.483887E+01
   0.208000E+04   0.137087E-04   0.399224E-04   0.373726E+00   0.483887E+01
   0.209000E+04   0.142199E-04   0.409849E-04   0.373730E+00   0.483887E+01
   0.210000E+04   0.147455E-04   0.420898E-04   0.373734E+00   0.483887E+01
   0.211000E+04   0.152855E-04   0.432373E-04   0.373737E+00   0.483887E+01
   0.212000E+04   0.158399E-04   0.444277E-04   0.373741E+00   0.483887E+01
   0.213000E+04   0.164086E-04   0.456613E-04   0.373745E+00   0.483887E+01
   0.214000E+04   0.169914E-04   0.469381E-04   0.373748E+00   0.483887E+01
   0.215000E+04   0.175882E-04   0.482581E-04   0.373752E+00   0.483887E+01
   0.216000E+04   0.181990E-04   0.496214E-04   0.373755E+00   0.483887E+01
   0.217000E+04   0.188235E-04   0.510277E-04   0.373759E+00   0.483887E+01
   0.218000E+04   0.194616E-04   0.524769E-04   0.373762E+00   0.483887E+01
   0.219000E+04   0.201130E-04   0.539686E-04   0.373765E+00   0.483887E+01
   0.220000E+04   0.207776E-04   0.555025E-04   0.373769E+00   0.483887E+01
   0.221000E+04   0.214551E-04   0.570780E-04   0.373772E+00   0.483887E+01
   0.222000E+04   0.221453E-04   0.586946E-04   0.373775E+00   0.483887E+01
   0.223000E+04   0.228478E-04   0.603517E-04   0.373778E+00   0.483887E+01
   0.224000E+04   0.235625E-04   0.620485E-04   0.373781E+00   0.483887E+01
   0.225000E+04   0.242888E-04   0.637841E-04   0.373784E+00   0.483887E+01
   0.226000E+04   0.250267E-04   0.655578E-04   0.373787E+00   0.483887E+01
   0.227000E+04   0.257756E-04   0.673686E-04   0.373790E+00   0.483887E+01
   0.228000E+04   0.265354E-04   0.692156E-04   0.373793E+00   0.483887E+01
   0.229000E+04   0.273055E-04   0.710978E-04   0.373796E+00   0.483887E+01
   0.230000E+04   0.280857E-04   0.730141E-04   0.373799E+00   0.483887E+01
   0.231000E+04   0.288756E-04   0.749635E-04   0.373802E+00   0.483887E+01
   0.232000E+04   0.296749E-04   0.769450E-04   0.373805E+00   0.483887E+01
   0.233000E+04   0.304831E-04   0.789574E-04   0.373807E+00   0.483887E+01
   0.234000E+04   0.312999E-04   0.809997E-04   0.373810E+00   0.483887E+01
   0.235000E+04   0.321249E-04   0.830708E-04   0.373813E+00   0.483887E+01
   0.236000E+04   0.329578E-04   0.851695E-04   0.373816E+00   0.483887E+01
   0.237000E+04   0.337981E-04   0.872947E-04   0.373818E+00   0.483887E+01
   0.238000E+04   0.346456E-04   0.894454E-04   0.373821E+00   0.483887E+01
   0.239000E+04   0.355000E-04   0.916204E-04   0.373823E+00   0.483887E+01
   0.240000E+04   0.363607E-04   0.938186E-04   0.373826E+00   0.483887E+01
   0.241000E+04   0.372276E-04   0.960390E-04   0.373828E+00   0.483887E+01
   0.242000E+04   0.381002E-04   0.982804E-04   0.373831E+00   0.483887E+01
   0.243000E+04   0.389783E-04   0.100542E-03   0.373833E+00   0.483887E+01
   0.244000E+04   0.398616E-04   0.102822E-03   0.373836E+00   0.483887E+01
   0.245000E+04   0.407497E-04   0.105121E-03   0.373838E+00   0.483887E+01
   0.246000E+04   0.416424E-04   0.107436E-03   0.373840E+00   0.483887E+01
   0.247000E+04   0.425393E-04   0.109767E-03   0.373842E+00   0.483887E+01
   0.248000E+04   0.434402E-04   0.112113E-03   0.373845E+00   0.483887E+01
   0.249000E+04   0.443448E-04   0.114474E-03   0.373847E+00   0.483887E+01
   0.250000E+04   0.452528E-04   0.116847E-03   0.373849E+00   0.483887E+01
   0.251000E+04   0.461641E-04   0.119233E-03   0.373851E+00   0.483887E+01
   0.252000E+04   0.470783E-04   0.121631E-03   0.373853E+00   0.483887E+01
   0.253000E+04   0.479952E-04   0.124039E-03   0.373856E+00   0.483887E+01
   0.254000E+04   0.489147E-04   0.126458E-03   0.373858E+00   0.483887E+01
   0.255000E+04   0.498367E-04   0.128887E-03   0.373860E+00   0.483887E+01
   0.256000E+04   0.507609E-04   0.131325E-03   0.373862E+00   0.483887E+01
   0.257000E+04   0.516872E-04   0.133773E-03   0.373864E+00   0.483887E+01
   0.258000E+04   0.526156E-04   0.136229E-03   0.373866E+00   0.483887E+01
   0.259000E+04   0.535460E-04   0.138694E-03   0.373868E+00   0.483887E+01
   0.260000E+04   0.544782E-04   0.141167E-03   0.373870E+00   0.483887E+01
   0.261000E+04   0.554123E-04   0.143649E-03   0.373872E+00   0.483887E+01
   0.262000E+04   0.563482E-04   0.146140E-03   0.373873E+00   0.483887E+01
   0.263000E+04   0.572860E-04   0.148639E-03   0.373876E+00   0.483887E+01
   0.264000E+04   0.582255E-04   0.151147E-03   0.373878E+00   0.483887E+01
   0.265000E+04   0.591669E-04   0.153664E-03   0.373879E+00   0.483887E+01
   0.266000E+04   0.601100E-04   0.156189E-03   0.373881E+00   0.483887E+01
   0.267000E+04   0.610550E-04   0.158724E-03   0.373883E+00   0.483887E+01
   0.268000E+04   0.620017E-04   0.161268E-03   0.373885E+00   0.483887E+01
   0.269000E+04   0.629503E-04   0.163821E-03   0.373887E+00   0.483887E+01
   0.270000E+04   0.639006E-04   0.166383E-03   0.373888E+00   0.483887E+01
   0.271000E+04   0.648526E-04   0.168954E-03   0.373889E+00   0.483887E+01
   0.272000E+04   0.658063E-04   0.171535E-03   0.373891E+00   0.483887E+01
   0.273000E+04   0.667616E-04   0.174125E-03   0.373894E+00   0.483887E+01
   0.274000E+04   0.677185E-04   0.176723E-03   0.373896E+00   0.483887E+01
   0.275000E+04   0.686769E-04   0.179331E-03   0.373896E+00   0.483887E+01
   0.276000E+04   0.696367E-04   0.181947E-03   0.373897E+00   0.483887E+01
   0.277000E+04   0.705977E-04   0.184571E-03   0.373900E+00   0.483887E+01
   0.278000E+04   0.715599E-04   0.187203E-03   0.373903E+00   0.483887E+01
   0.279000E+04   0.725231E-04   0.189842E-03   0.373904E+00   0.483887E+01
   0.280000E+04   0.734873E-04   0.192489E-03   0.373903E+00   0.483887E+01
   0.281000E+04   0.744524E-04   0.195142E-03   0.373904E+00   0.483887E+01
   0.282000E+04   0.754180E-04   0.197802E-03   0.373908E+00   0.483887E+01
   0.283000E+04   0.763840E-04   0.200467E-03   0.373912E+00   0.483887E+01
   0.284000E+04   0.773506E-04   0.203137E-03   0.373912E+00   0.483887E+01
   0.285000E+04   0.783174E-04   0.205813E-03   0.373910E+00   0.483887E+01
   0.286000E+04   0.792844E-04   0.208493E-03   0.373912E+00   0.483887E+01
   0.287000E+04   0.802511E-04   0.211176E-03   0.373917E+00   0.483887E+01
   0.288000E+04   0.812176E-04   0.213863E-03   0.373920E+00   0.483887E+01
   0.289000E+04   0.821840E-04   0.216554E-03   0.373918E+00   0.483887E+01
   0.290000E+04   0.831500E-04   0.219246E-03   0.373916E+00   0.483887E+01
   0.291000E+04   0.841152E-04   0.221941E-03   0.373919E+00   0.483887E+01
   0.292000E+04   0.850796E-04   0.224637E-03   0.373925E+00   0.483887E+01
   0.293000E+04   0.860431E-04   0.227335E-03   0.373927E+00   0.483887E+01
   0.294000E+04   0.870057E-04   0.230033E-03   0.373924E+00   0.483887E+01
   0.295000E+04   0.879674E-04   0.232732E-03   0.373923E+00   0.483887E+01
   0.296000E+04   0.889275E-04   0.235430E-03   0.373927E+00   0.483887E+01
   0.297000E+04   0.898862E-04   0.238128E-03   0.373932E+00   0.483887E+01
   0.298000E+04   0.908433E-04   0.240824E-03   0.373934E+00   0.483887E+01
   0.299000E+04   0.917991E-04   0.243519E-03   0.373930E+00   0.483887E+01
   0.300000E+04   0.927531E-04   0.246213E-03   0.373930E+00   0.483887E+01
   0.301000E+04   0.937051E-04   0.248904E-03   0.373934E+00   0.483887E+01
   0.302000E+04   0.946550E-04   0.251593E-03   0.373939E+00   0.483887E+01
   0.303000E+04   0.956030E-04   0.254278E-03   0.373940E+00   0.483887E+01
   0.304000E+04   0.965490E-04   0.256960E-03   0.373936E+00   0.483887E+01
   0.305000E+04   0.974909E-04   0.259635E-03   0.373941E+00   0.483887E+01
   0.306000E+04   0.984319E-04   0.262309E-03   0.373942E+00   0.483887E+01
   0.307000E+04   0.993707E-04   0.264978E-03   0.373941E+00   0.483887E+01
   0.308000E+04   0.100307E-03   0.267644E-03   0.373941E+00   0.483887E+01
   0.309000E+04   0.101241E-03   0.270304E-03   0.373944E+00   0.483887E+01
   0.310000E+04   0.102172E-03   0.272958E-03   0.373947E+00   0.483887E+01
   0.311000E+04   0.103100E-03   0.275608E-03   0.373948E+00   0.483887E+01
   0.312000E+04   0.104026E-03   0.278251E-03   0.373946E+00   0.483887E+01
   0.313000E+04   0.104949E-03   0.280889E-03   0.373946E+00   0.483887E+01
   0.314000E+04   0.105870E-03   0.283520E-03   0.373949E+00   0.483887E+01
   0.315000E+04   0.106787E-03   0.286145E-03   0.373953E+00   0.483887E+01
   0.316000E+04   0.107701E-03   0.288762E-03   0.373953E+00   0.483887E+01
   0.317000E+04   0.108612E-03   0.291373E-03   0.373950E+00   0.483887E+01
   0.318000E+04   0.109520E-03   0.293976E-03   0.373950E+00   0.483887E+01
   0.319000E+04   0.110425E-03   0.296572E-03   0.373954E+00   0.483887E+01
   0.320000E+04   0.111326E-03   0.299159E-03   0.373958E+00   0.483887E+01
   0.321000E+04   0.112224E-03   0.301739E-03   0.373957E+00   0.483887E+01
   0.322000E+04   0.113119E-03   0.304310E-03   0.373954E+00   0.483887E+01
   0.323000E+04   0.114009E-03   0.306869E-03   0.373959E+00   0.483887E+01
   0.324000E+04   0.114897E-03   0.309422E-03   0.373959E+00   0.483887E+01
   0.325000E+04   0.115781E-03   0.311967E-03   0.373958E+00   0.483887E+01
   0.326000E+04   0.116662E-03   0.314502E-03   0.373958E+00   0.483887E+01
   0.327000E+04   0.117540E-03   0.317028E-03   0.373961E+00   0.483887E+01
   0.328000E+04   0.118413E-03   0.319545E-03   0.373964E+00   0.483887E+01
   0.329000E+04   0.119283E-03   0.322052E-03   0.373964E+00   0.483887E+01
   0.330000E+04   0.120150E-03   0.324549E-03   0.373962E+00   0.483887E+01
   0.331000E+04   0.121012E-03   0.327036E-03   0.373962E+00   0.483887E+01
   0.332000E+04   0.121871E-03   0.329512E-03   0.373965E+00   0.483887E+01
   0.333000E+04   0.122726E-03   0.331978E-03   0.373969E+00   0.483887E+01
   0.334000E+04   0.123577E-03   0.334433E-03   0.373968E+00   0.483887E+01
   0.335000E+04   0.124424E-03   0.336878E-03   0.373965E+00   0.483887E+01
   0.336000E+04   0.125267E-03   0.339311E-03   0.373966E+00   0.483887E+01
   0.337000E+04   0.126106E-03   0.341733E-03   0.373970E+00   0.483887E+01
   0.338000E+04   0.126941E-03   0.344143E-03   0.373973E+00   0.483887E+01
   0.339000E+04   0.127772E-03   0.346542E-03   0.373971E+00   0.483887E+01
   0.340000E+04   0.128598E-03   0.348929E-03   0.373968E+00   0.483887E+01
   0.341000E+04   0.129421E-03   0.351305E-03   0.373969E+00   0.483887E+01
   0.342000E+04   0.130239E-03   0.353668E-03   0.373974E+00   0.483887E+01
   0.343000E+04   0.131052E-03   0.356019E-03   0.373977E+00   0.483887E+01
   0.344000E+04   0.131862E-03   0.358358E-03   0.373974E+00   0.483887E+01
   0.345000E+04   0.132667E-03   0.360685E-03   0.373971E+00   0.483887E+01
   0.346000E+04   0.133468E-03   0.362999E-03   0.373973E+00   0.483887E+01
   0.347000E+04   0.134265E-03   0.365301E-03   0.373979E+00   0.483887E+01
   0.348000E+04   0.135056E-03   0.367590E-03   0.373980E+00   0.483887E+01
   0.349000E+04   0.135844E-03   0.369867E-03   0.373977E+00   0.483887E+01
   0.350000E+04   0.136628E-03   0.372132E-03   0.373975E+00   0.483887E+01
   0.351000E+04   0.137407E-03   0.374384E-03   0.373978E+00   0.483887E+01
   0.352000E+04   0.138181E-03   0.376622E-03   0.373983E+00   0.483887E+01
   0.353000E+04   0.138951E-03   0.378848E-03   0.373984E+00   0.483887E+01
   0.354000E+04   0.139717E-03   0.381062E-03   0.373980E+00   0.483887E+01
   0.355000E+04   0.140478E-03   0.383264E-03   0.373978E+00   0.483887E+01
   0.356000E+04   0.141235E-03   0.385453E-03   0.373982E+00   0.483887E+01
   0.357000E+04   0.141988E-03   0.387629E-03   0.373986E+00   0.483887E+01
   0.358000E+04   0.142736E-03   0.389792E-03   0.373987E+00   0.483887E+01
   0.359000E+04   0.143480E-03   0.391943E-03   0.373983E+00   0.483887E+01
   0.360000E+04   0.144219E-03   0.394083E-03   0.373981E+00   0.483887E+01
   0.361000E+04   0.144954E-03   0.396209E-03   0.373985E+00   0.483887E+01
   0.362000E+04   0.145685E-03   0.398323E-03   0.373990E+00   0.483887E+01
   0.363000E+04   0.146411E-03   0.400425E-03   0.373989E+00   0.483887E+01
   0.364000E+04   0.147134E-03   0.402515E-03   0.373985E+00   0.483887E+01
   0.365000E+04   0.147851E-03   0.404589E-03   0.373989E+00   0.483887E+01
   0.366000E+04   0.148564E-03   0.406655E-03   0.373990E+00   0.483887E+01
   0.367000E+04   0.149274E-03   0.408709E-03   0.373989E+00   0.483887E+01
   0.368000E+04   0.149980E-03   0.410751E-03   0.373988E+00   0.483887E+01
   0.369000E+04   0.150682E-03   0.412781E-03   0.373990E+00   0.483887E+01
   0.370000E+04   0.151379E-03   0.414800E-03   0.373993E+00   0.483887E+01
   0.371000E+04   0.152072E-03   0.416808E-03   0.373993E+00   0.483887E+01
   0.372000E+04   0.152762E-03   0.418805E-03   0.373991E+00   0.483887E+01
   0.373000E+04   0.153448E-03   0.420791E-03   0.373990E+00   0.483887E+01
   0.374000E+04   0.154130E-03   0.422766E-03   0.373993E+00   0.483887E+01
   0.375000E+04   0.154808E-03   0.424729E-03   0.373996E+00   0.483887E+01
   0.376000E+04   0.155483E-03   0.426682E-03   0.373995E+00   0.483887E+01
   0.377000E+04   0.156153E-03   0.428625E-03   0.373992E+00   0.483887E+01
   0.378000E+04   0.156820E-03   0.430558E-03   0.373992E+00   0.483887E+01
   0.379000E+04   0.157484E-03   0.432479E-03   0.373995E+00   0.483887E+01
   0.380000E+04   0.158143E-03   0.434390E-03   0.373998E+00   0.483887E+01
   0.381000E+04   0.158799E-03   0.436291E-03   0.373997E+00   0.483887E+01
   0.382000E+04   0.159451E-03   0.438182E-03   0.373993E+00   0.483887E+01
   0.383000E+04   0.160099E-03   0.440059E-03   0.373998E+00   0.483887E+01
   0.384000E+04   0.160743E-03   0.441929E-03   0.373998E+00   0.483887E+01
   0.385000E+04   0.161385E-03   0.443790E-03   0.373997E+00   0.483887E+01
   0.386000E+04   0.162023E-03   0.445641E-03   0.373997E+00   0.483887E+01
   0.387000E+04   0.162658E-03   0.447482E-03   0.373999E+00   0.483887E+01
   0.388000E+04   0.163289E-03   0.449314E-03   0.374001E+00   0.483887E+01
   0.389000E+04   0.163917E-03   0.451136E-03   0.374001E+00   0.483887E+01
   0.390000E+04   0.164542E-03   0.452950E-03   0.373998E+00   0.483887E+01
   0.391000E+04   0.165164E-03   0.454754E-03   0.373998E+00   0.483887E+01
   0.392000E+04   0.165782E-03   0.456549E-03   0.374001E+00   0.483887E+01
   0.393000E+04   0.166397E-03   0.458335E-03   0.374004E+00   0.483887E+01