title="breakthrough data set at     5 wells"
variables="time(days)","cavg","cpk","upk","zswi"
zone i=     1295
   0.100000E+02   0.288413E-10   0.442216E-10   0.468207E+00   0.485480E+01
   0.200000E+02   0.664512E-10   0.983517E-10   0.375064E+00   0.482945E+01
   0.300000E+02   0.134202E-09   0.195289E-09   0.374738E+00   0.482945E+01
   0.400000E+02   0.248413E-09   0.359000E-09   0.374866E+00   0.482945E+01
   0.500000E+02   0.430894E-09   0.621794E-09   0.374989E+00   0.482945E+01
   0.600000E+02   0.710001E-09   0.102582E-08   0.375105E+00   0.482945E+01
   0.700000E+02   0.112169E-08   0.162438E-08   0.375212E+00   0.482945E+01
   0.800000E+02   0.170943E-08   0.248131E-08   0.375316E+00   0.482945E+01
   0.900000E+02   0.252420E-08   0.367103E-08   0.375411E+00   0.482945E+01
   0.100000E+03   0.362350E-08   0.527716E-08   0.375499E+00   0.482945E+01
   0.110000E+03   0.507017E-08   0.739071E-08   0.375581E+00   0.482945E+01
   0.120000E+03   0.693121E-08   0.101079E-07   0.375658E+00   0.482945E+01
   0.130000E+03   0.927701E-08   0.135276E-07   0.375659E+00   0.482945E+01
   0.140000E+03   0.121765E-07   0.177448E-07   0.375731E+00   0.482945E+01
   0.150000E+03   0.156981E-07   0.228515E-07   0.375801E+00   0.482945E+01
   0.160000E+03   0.199031E-07   0.289297E-07   0.375868E+00   0.482945E+01
   0.170000E+03   0.248335E-07   0.360374E-07   0.375992E+00   0.482945E+01
   0.180000E+03   0.305276E-07   0.442401E-07   0.376048E+00   0.482945E+01
   0.190000E+03   0.370040E-07   0.535896E-07   0.376047E+00   0.482945E+01
   0.200000E+03   0.442357E-07   0.640808E-07   0.376103E+00   0.482945E+01
   0.210000E+03   0.521846E-07   0.757081E-07   0.376156E+00   0.482945E+01
   0.220000E+03   0.607912E-07   0.884470E-07   0.376207E+00   0.482945E+01
   0.230000E+03   0.699740E-07   0.102251E-06   0.376256E+00   0.482945E+01
   0.240000E+03   0.796267E-07   0.117051E-06   0.376304E+00   0.482945E+01
   0.250000E+03   0.896135E-07   0.132752E-06   0.376350E+00   0.482945E+01
   0.260000E+03   0.997631E-07   0.149231E-06   0.376394E+00   0.482945E+01
   0.270000E+03   0.109864E-06   0.166347E-06   0.376436E+00   0.482945E+01
   0.280000E+03   0.119663E-06   0.185364E-06   0.376478E+00   0.482945E+01
   0.290000E+03   0.128867E-06   0.207851E-06   0.376517E+00   0.482945E+01
   0.300000E+03   0.137152E-06   0.231684E-06   0.376556E+00   0.482945E+01
   0.310000E+03   0.144176E-06   0.256823E-06   0.376592E+00   0.482945E+01
   0.320000E+03   0.149591E-06   0.283230E-06   0.376627E+00   0.482945E+01
   0.330000E+03   0.153059E-06   0.310862E-06   0.376661E+00   0.482945E+01
   0.340000E+03   0.154260E-06   0.339678E-06   0.376693E+00   0.482945E+01
   0.350000E+03   0.152906E-06   0.369634E-06   0.376724E+00   0.482945E+01
   0.360000E+03   0.148736E-06   0.400686E-06   0.376754E+00   0.482945E+01
   0.370000E+03   0.141525E-06   0.432785E-06   0.376782E+00   0.482945E+01
   0.380000E+03   0.131084E-06   0.465882E-06   0.376810E+00   0.482945E+01
   0.390000E+03   0.117252E-06   0.499923E-06   0.376836E+00   0.482945E+01
   0.400000E+03   0.998958E-07   0.534851E-06   0.376862E+00   0.482945E+01
   0.410000E+03   0.789074E-07   0.570610E-06   0.376886E+00   0.482945E+01
   0.420000E+03   0.541962E-07   0.607136E-06   0.376910E+00   0.482945E+01
   0.430000E+03   0.256864E-07   0.644368E-06   0.376933E+00   0.482945E+01
   0.440000E+03  -0.668687E-08   0.682241E-06   0.376955E+00   0.482945E+01
   0.450000E+03  -0.429811E-07   0.720689E-06   0.376976E+00   0.482945E+01
   0.460000E+03  -0.832473E-07   0.759647E-06   0.376996E+00   0.482945E+01
   0.470000E+03  -0.127531E-06   0.799048E-06   0.377016E+00   0.482945E+01
   0.480000E+03  -0.175870E-06   0.838827E-06   0.377035E+00   0.482945E+01
   0.490000E+03  -0.228294E-06   0.878920E-06   0.377053E+00   0.482945E+01
   0.500000E+03  -0.284820E-06   0.919264E-06   0.377070E+00   0.482945E+01
   0.510000E+03  -0.345452E-06   0.959800E-06   0.377087E+00   0.482945E+01
   0.520000E+03  -0.410177E-06   0.100047E-05   0.377104E+00   0.482945E+01
   0.530000E+03  -0.478967E-06   0.104122E-05   0.377119E+00   0.482945E+01
   0.540000E+03  -0.551774E-06   0.108199E-05   0.377134E+00   0.482945E+01
   0.550000E+03  -0.628534E-06   0.112273E-05   0.377149E+00   0.482945E+01
   0.560000E+03  -0.709161E-06   0.116341E-05   0.377163E+00   0.482945E+01
   0.570000E+03  -0.793553E-06   0.120397E-05   0.377176E+00   0.482945E+01
   0.580000E+03  -0.881588E-06   0.124437E-05   0.377189E+00   0.482945E+01
   0.590000E+03  -0.973121E-06   0.128458E-05   0.377201E+00   0.482945E+01
   0.600000E+03  -0.106799E-05   0.132458E-05   0.377213E+00   0.482945E+01
   0.610000E+03  -0.116601E-05   0.136433E-05   0.377225E+00   0.482945E+01
   0.620000E+03  -0.126699E-05   0.140380E-05   0.377236E+00   0.482945E+01
   0.630000E+03  -0.137069E-05   0.144299E-05   0.377246E+00   0.482945E+01
   0.640000E+03  -0.147690E-05   0.148188E-05   0.377256E+00   0.482945E+01
   0.650000E+03  -0.158535E-05   0.152045E-05   0.377266E+00   0.482945E+01
   0.660000E+03  -0.169578E-05   0.155869E-05   0.377275E+00   0.482945E+01
   0.670000E+03  -0.180791E-05   0.159661E-05   0.377284E+00   0.482945E+01
   0.680000E+03  -0.192145E-05   0.163418E-05   0.377293E+00   0.482945E+01
   0.690000E+03  -0.203610E-05   0.167143E-05   0.377301E+00   0.482945E+01
   0.700000E+03  -0.215154E-05   0.170834E-05   0.377309E+00   0.482945E+01
   0.710000E+03  -0.226747E-05   0.174492E-05   0.377317E+00   0.482945E+01
   0.720000E+03  -0.238356E-05   0.178117E-05   0.377324E+00   0.482945E+01
   0.730000E+03  -0.249947E-05   0.181711E-05   0.377331E+00   0.482945E+01
   0.740000E+03  -0.261487E-05   0.185275E-05   0.377338E+00   0.482945E+01
   0.750000E+03  -0.272943E-05   0.188808E-05   0.377344E+00   0.482945E+01
   0.760000E+03  -0.284281E-05   0.192314E-05   0.377350E+00   0.482945E+01
   0.770000E+03  -0.295467E-05   0.195794E-05   0.377356E+00   0.482945E+01
   0.780000E+03  -0.306467E-05   0.199248E-05   0.377361E+00   0.482945E+01
   0.790000E+03  -0.317248E-05   0.202679E-05   0.377366E+00   0.482945E+01
   0.800000E+03  -0.327777E-05   0.206089E-05   0.377371E+00   0.482945E+01
   0.810000E+03  -0.338022E-05   0.209479E-05   0.377376E+00   0.482945E+01
   0.820000E+03  -0.347950E-05   0.212852E-05   0.377381E+00   0.482945E+01
   0.830000E+03  -0.357530E-05   0.216209E-05   0.377385E+00   0.482945E+01
   0.840000E+03  -0.366732E-05   0.219552E-05   0.377389E+00   0.482945E+01
   0.850000E+03  -0.375526E-05   0.222883E-05   0.377393E+00   0.482945E+01
   0.860000E+03  -0.383883E-05   0.226204E-05   0.377397E+00   0.482945E+01
   0.870000E+03  -0.391776E-05   0.229518E-05   0.377400E+00   0.482945E+01
   0.880000E+03  -0.399177E-05   0.232825E-05   0.377404E+00   0.482945E+01
   0.890000E+03  -0.406062E-05   0.236127E-05   0.377407E+00   0.482945E+01
   0.900000E+03  -0.412406E-05   0.239427E-05   0.377410E+00   0.482945E+01
   0.910000E+03  -0.418185E-05   0.242726E-05   0.377413E+00   0.482945E+01
   0.920000E+03  -0.423378E-05   0.246025E-05   0.377416E+00   0.482945E+01
   0.930000E+03  -0.427964E-05   0.249326E-05   0.377418E+00   0.482945E+01
   0.940000E+03  -0.431922E-05   0.252630E-05   0.377421E+00   0.482945E+01
   0.950000E+03  -0.435235E-05   0.255940E-05   0.377423E+00   0.482945E+01
   0.960000E+03  -0.437886E-05   0.259256E-05   0.377425E+00   0.482945E+01
   0.970000E+03  -0.439859E-05   0.262579E-05   0.377428E+00   0.482945E+01
   0.980000E+03  -0.441140E-05   0.265912E-05   0.377429E+00   0.482945E+01
   0.990000E+03  -0.441715E-05   0.269256E-05   0.377431E+00   0.482945E+01
   0.100000E+04  -0.441573E-05   0.272611E-05   0.377433E+00   0.482945E+01
   0.101000E+04  -0.440706E-05   0.275980E-05   0.377435E+00   0.482945E+01
   0.102000E+04  -0.439103E-05   0.279363E-05   0.377436E+00   0.482945E+01
   0.103000E+04  -0.436758E-05   0.282763E-05   0.377438E+00   0.482945E+01
   0.104000E+04  -0.433667E-05   0.286179E-05   0.377439E+00   0.482945E+01
   0.105000E+04  -0.429824E-05   0.289615E-05   0.377440E+00   0.482945E+01
   0.106000E+04  -0.425227E-05   0.293071E-05   0.377441E+00   0.482945E+01
   0.107000E+04  -0.419876E-05   0.296548E-05   0.377443E+00   0.482945E+01
   0.108000E+04  -0.413770E-05   0.300049E-05   0.377444E+00   0.482945E+01
   0.109000E+04  -0.406911E-05   0.303573E-05   0.377444E+00   0.482945E+01
   0.110000E+04  -0.399301E-05   0.307123E-05   0.377445E+00   0.482945E+01
   0.111000E+04  -0.390944E-05   0.310701E-05   0.377446E+00   0.482945E+01
   0.112000E+04  -0.381843E-05   0.314306E-05   0.377447E+00   0.482945E+01
   0.113000E+04  -0.372004E-05   0.317941E-05   0.377447E+00   0.482945E+01
   0.114000E+04  -0.361432E-05   0.321607E-05   0.377448E+00   0.482945E+01
   0.115000E+04  -0.350134E-05   0.325306E-05   0.377448E+00   0.482945E+01
   0.116000E+04  -0.338114E-05   0.329037E-05   0.377449E+00   0.482945E+01
   0.117000E+04  -0.325380E-05   0.332803E-05   0.377449E+00   0.482945E+01
   0.118000E+04  -0.311939E-05   0.336605E-05   0.377450E+00   0.482945E+01
   0.119000E+04  -0.297796E-05   0.340443E-05   0.377450E+00   0.482945E+01
   0.120000E+04  -0.282959E-05   0.344319E-05   0.377450E+00   0.482945E+01
   0.121000E+04  -0.267433E-05   0.348234E-05   0.377450E+00   0.482945E+01
   0.122000E+04  -0.251224E-05   0.352187E-05   0.377450E+00   0.482945E+01
   0.123000E+04  -0.234340E-05   0.356180E-05   0.377450E+00   0.482945E+01
   0.124000E+04  -0.216784E-05   0.360214E-05   0.377450E+00   0.482945E+01
   0.125000E+04  -0.198564E-05   0.364289E-05   0.377450E+00   0.482945E+01
   0.126000E+04  -0.179684E-05   0.368405E-05   0.377450E+00   0.482945E+01
   0.127000E+04  -0.160149E-05   0.372563E-05   0.377450E+00   0.482945E+01
   0.128000E+04  -0.139964E-05   0.376762E-05   0.377449E+00   0.482945E+01
   0.129000E+04  -0.119135E-05   0.381005E-05   0.377449E+00   0.482945E+01
   0.130000E+04  -0.976663E-06   0.385289E-05   0.377449E+00   0.482945E+01
   0.131000E+04  -0.755622E-06   0.389617E-05   0.377448E+00   0.482945E+01
   0.132000E+04  -0.528281E-06   0.393987E-05   0.377448E+00   0.482945E+01
   0.133000E+04  -0.294687E-06   0.398400E-05   0.377447E+00   0.482945E+01
   0.134000E+04  -0.548930E-07   0.402856E-05   0.377447E+00   0.482945E+01
   0.135000E+04   0.191049E-06   0.432375E-05   0.377446E+00   0.482945E+01
   0.136000E+04   0.443084E-06   0.494185E-05   0.377446E+00   0.482945E+01
   0.137000E+04   0.701155E-06   0.557570E-05   0.377445E+00   0.482945E+01
   0.138000E+04   0.965200E-06   0.622515E-05   0.377445E+00   0.482945E+01
   0.139000E+04   0.123516E-05   0.689000E-05   0.377444E+00   0.482945E+01
   0.140000E+04   0.151096E-05   0.757007E-05   0.377443E+00   0.482945E+01
   0.141000E+04   0.179254E-05   0.826515E-05   0.377443E+00   0.482945E+01
   0.142000E+04   0.207981E-05   0.897504E-05   0.377442E+00   0.482945E+01
   0.143000E+04   0.237271E-05   0.969951E-05   0.377441E+00   0.482945E+01
   0.144000E+04   0.267115E-05   0.104383E-04   0.377440E+00   0.482945E+01
   0.145000E+04   0.297505E-05   0.111912E-04   0.377440E+00   0.482945E+01
   0.146000E+04   0.328432E-05   0.119580E-04   0.377439E+00   0.482945E+01
   0.147000E+04   0.359887E-05   0.127384E-04   0.377438E+00   0.482945E+01
   0.148000E+04   0.391861E-05   0.135322E-04   0.377437E+00   0.482945E+01
   0.149000E+04   0.424345E-05   0.143390E-04   0.377436E+00   0.482945E+01
   0.150000E+04   0.457328E-05   0.151586E-04   0.377435E+00   0.482945E+01
   0.151000E+04   0.490802E-05   0.159907E-04   0.377435E+00   0.482945E+01
   0.152000E+04   0.524756E-05   0.168351E-04   0.377434E+00   0.482945E+01
   0.153000E+04   0.559182E-05   0.176915E-04   0.377433E+00   0.482945E+01
   0.154000E+04   0.594069E-05   0.185597E-04   0.377432E+00   0.482945E+01
   0.155000E+04   0.629409E-05   0.194392E-04   0.377431E+00   0.482945E+01
   0.156000E+04   0.665192E-05   0.203300E-04   0.377430E+00   0.482945E+01
   0.157000E+04   0.701409E-05   0.212317E-04   0.377429E+00   0.482945E+01
   0.158000E+04   0.738052E-05   0.221440E-04   0.377428E+00   0.482945E+01
   0.159000E+04   0.775112E-05   0.230668E-04   0.377427E+00   0.482945E+01
   0.160000E+04   0.812582E-05   0.239999E-04   0.377426E+00   0.482945E+01
   0.161000E+04   0.850452E-05   0.249429E-04   0.377425E+00   0.482945E+01
   0.162000E+04   0.888717E-05   0.258958E-04   0.377424E+00   0.482945E+01
   0.163000E+04   0.927369E-05   0.268582E-04   0.377423E+00   0.482945E+01
   0.164000E+04   0.966402E-05   0.278300E-04   0.377421E+00   0.482945E+01
   0.165000E+04   0.100581E-04   0.288111E-04   0.377420E+00   0.482945E+01
   0.166000E+04   0.104558E-04   0.298012E-04   0.377419E+00   0.482945E+01
   0.167000E+04   0.108572E-04   0.308003E-04   0.377418E+00   0.482945E+01
   0.168000E+04   0.112621E-04   0.318081E-04   0.377417E+00   0.482945E+01
   0.169000E+04   0.116705E-04   0.328245E-04   0.377416E+00   0.482945E+01
   0.170000E+04   0.120823E-04   0.338493E-04   0.377415E+00   0.482945E+01
   0.171000E+04   0.124975E-04   0.348825E-04   0.377414E+00   0.482945E+01
   0.172000E+04   0.129160E-04   0.359238E-04   0.377412E+00   0.482945E+01
   0.173000E+04   0.133377E-04   0.369730E-04   0.377411E+00   0.482945E+01
   0.174000E+04   0.137626E-04   0.380301E-04   0.377410E+00   0.482945E+01
   0.175000E+04   0.141906E-04   0.390948E-04   0.377409E+00   0.482945E+01
   0.176000E+04   0.146217E-04   0.401669E-04   0.377408E+00   0.482945E+01
   0.177000E+04   0.150556E-04   0.412463E-04   0.377407E+00   0.482945E+01
   0.178000E+04   0.154925E-04   0.423326E-04   0.377405E+00   0.482945E+01
   0.179000E+04   0.159320E-04   0.434258E-04   0.377404E+00   0.482945E+01
   0.180000E+04   0.163743E-04   0.445255E-04   0.377403E+00   0.482945E+01
   0.181000E+04   0.168191E-04   0.456314E-04   0.377402E+00   0.482945E+01
   0.182000E+04   0.172664E-04   0.467433E-04   0.377401E+00   0.482945E+01
   0.183000E+04   0.177160E-04   0.478609E-04   0.377399E+00   0.482945E+01
   0.184000E+04   0.181679E-04   0.489839E-04   0.377398E+00   0.482945E+01
   0.185000E+04   0.186219E-04   0.501120E-04   0.377397E+00   0.482945E+01
   0.186000E+04   0.190779E-04   0.512448E-04   0.377396E+00   0.482945E+01
   0.187000E+04   0.195358E-04   0.523821E-04   0.377395E+00   0.482945E+01
   0.188000E+04   0.199954E-04   0.535234E-04   0.377393E+00   0.482945E+01
   0.189000E+04   0.204567E-04   0.546685E-04   0.377392E+00   0.482945E+01
   0.190000E+04   0.209196E-04   0.558169E-04   0.377391E+00   0.482945E+01
   0.191000E+04   0.213838E-04   0.569684E-04   0.377390E+00   0.482945E+01
   0.192000E+04   0.218493E-04   0.581226E-04   0.377388E+00   0.482945E+01
   0.193000E+04   0.223160E-04   0.592791E-04   0.377387E+00   0.482945E+01
   0.194000E+04   0.227837E-04   0.604376E-04   0.377386E+00   0.482945E+01
   0.195000E+04   0.232523E-04   0.615978E-04   0.377385E+00   0.482945E+01
   0.196000E+04   0.237217E-04   0.627593E-04   0.377383E+00   0.482945E+01
   0.197000E+04   0.241918E-04   0.639218E-04   0.377382E+00   0.482945E+01
   0.198000E+04   0.246625E-04   0.650849E-04   0.377381E+00   0.482945E+01
   0.199000E+04   0.251336E-04   0.662484E-04   0.377380E+00   0.482945E+01
   0.200000E+04   0.256050E-04   0.674119E-04   0.377378E+00   0.482945E+01
   0.201000E+04   0.260767E-04   0.685752E-04   0.377377E+00   0.482945E+01
   0.202000E+04   0.265485E-04   0.697379E-04   0.377376E+00   0.482945E+01
   0.203000E+04   0.270204E-04   0.708999E-04   0.377374E+00   0.482945E+01
   0.204000E+04   0.274922E-04   0.720608E-04   0.377373E+00   0.482945E+01
   0.205000E+04   0.279638E-04   0.732205E-04   0.377372E+00   0.482945E+01
   0.206000E+04   0.284353E-04   0.743787E-04   0.377371E+00   0.482945E+01
   0.207000E+04   0.289065E-04   0.755353E-04   0.377369E+00   0.482945E+01
   0.208000E+04   0.293773E-04   0.766900E-04   0.377368E+00   0.482945E+01
   0.209000E+04   0.298478E-04   0.778427E-04   0.377367E+00   0.482945E+01
   0.210000E+04   0.303178E-04   0.789933E-04   0.377365E+00   0.482945E+01
   0.211000E+04   0.307873E-04   0.801417E-04   0.377364E+00   0.482945E+01
   0.212000E+04   0.312563E-04   0.812878E-04   0.377363E+00   0.482945E+01
   0.213000E+04   0.317247E-04   0.824316E-04   0.377361E+00   0.482945E+01
   0.214000E+04   0.321925E-04   0.835729E-04   0.377360E+00   0.482945E+01
   0.215000E+04   0.326598E-04   0.847118E-04   0.377359E+00   0.482945E+01
   0.216000E+04   0.331264E-04   0.858482E-04   0.377357E+00   0.482945E+01
   0.217000E+04   0.335925E-04   0.869823E-04   0.377356E+00   0.482945E+01
   0.218000E+04   0.340579E-04   0.881139E-04   0.377355E+00   0.482945E+01
   0.219000E+04   0.345228E-04   0.892433E-04   0.377353E+00   0.482945E+01
   0.220000E+04   0.349871E-04   0.903704E-04   0.377352E+00   0.482945E+01
   0.221000E+04   0.354508E-04   0.914953E-04   0.377351E+00   0.482945E+01
   0.222000E+04   0.359140E-04   0.926182E-04   0.377349E+00   0.482945E+01
   0.223000E+04   0.363766E-04   0.937391E-04   0.377348E+00   0.482945E+01
   0.224000E+04   0.368387E-04   0.948581E-04   0.377347E+00   0.482945E+01
   0.225000E+04   0.373004E-04   0.959753E-04   0.377345E+00   0.482945E+01
   0.226000E+04   0.377615E-04   0.970910E-04   0.377344E+00   0.482945E+01
   0.227000E+04   0.382222E-04   0.982051E-04   0.377343E+00   0.482945E+01
   0.228000E+04   0.386825E-04   0.993177E-04   0.377342E+00   0.482945E+01
   0.229000E+04   0.391423E-04   0.100429E-03   0.377340E+00   0.482945E+01
   0.230000E+04   0.396017E-04   0.101539E-03   0.377339E+00   0.482945E+01
   0.231000E+04   0.400608E-04   0.102648E-03   0.377338E+00   0.482945E+01
   0.232000E+04   0.405194E-04   0.103756E-03   0.377336E+00   0.482945E+01
   0.233000E+04   0.409777E-04   0.104864E-03   0.377335E+00   0.482945E+01
   0.234000E+04   0.414356E-04   0.105970E-03   0.377334E+00   0.482945E+01
   0.235000E+04   0.418932E-04   0.107075E-03   0.377333E+00   0.482945E+01
   0.236000E+04   0.423504E-04   0.108180E-03   0.377331E+00   0.482945E+01
   0.237000E+04   0.428073E-04   0.109284E-03   0.377330E+00   0.482945E+01
   0.238000E+04   0.432638E-04   0.110388E-03   0.377329E+00   0.482945E+01
   0.239000E+04   0.437200E-04   0.111490E-03   0.377327E+00   0.482945E+01
   0.240000E+04   0.441759E-04   0.112593E-03   0.377326E+00   0.482945E+01
   0.241000E+04   0.446314E-04   0.113694E-03   0.377325E+00   0.482945E+01
   0.242000E+04   0.450866E-04   0.114795E-03   0.377324E+00   0.482945E+01
   0.243000E+04   0.455414E-04   0.115896E-03   0.377322E+00   0.482945E+01
   0.244000E+04   0.459959E-04   0.116996E-03   0.377321E+00   0.482945E+01
   0.245000E+04   0.464500E-04   0.118096E-03   0.377320E+00   0.482945E+01
   0.246000E+04   0.469037E-04   0.119194E-03   0.377319E+00   0.482945E+01
   0.247000E+04   0.473571E-04   0.120293E-03   0.377317E+00   0.482945E+01
   0.248000E+04   0.478101E-04   0.121390E-03   0.377316E+00   0.482945E+01
   0.249000E+04   0.482626E-04   0.122487E-03   0.377315E+00   0.482945E+01
   0.250000E+04   0.487148E-04   0.123584E-03   0.377314E+00   0.482945E+01
   0.251000E+04   0.491665E-04   0.124679E-03   0.377312E+00   0.482945E+01
   0.252000E+04   0.496177E-04   0.125774E-03   0.377311E+00   0.482945E+01
   0.253000E+04   0.500684E-04   0.126868E-03   0.377310E+00   0.482945E+01
   0.254000E+04   0.505186E-04   0.127961E-03   0.377309E+00   0.482945E+01
   0.255000E+04   0.509683E-04   0.129053E-03   0.377307E+00   0.482945E+01
   0.256000E+04   0.514173E-04   0.130144E-03   0.377306E+00   0.482945E+01
   0.257000E+04   0.518658E-04   0.131234E-03   0.377305E+00   0.482945E+01
   0.258000E+04   0.523137E-04   0.132322E-03   0.377304E+00   0.482945E+01
   0.259000E+04   0.527609E-04   0.133410E-03   0.377302E+00   0.482945E+01
   0.260000E+04   0.532074E-04   0.134496E-03   0.377301E+00   0.482945E+01
   0.261000E+04   0.536532E-04   0.135580E-03   0.377300E+00   0.482945E+01
   0.262000E+04   0.540983E-04   0.136663E-03   0.377299E+00   0.482945E+01
   0.263000E+04   0.545425E-04   0.137745E-03   0.377298E+00   0.482945E+01
   0.264000E+04   0.549860E-04   0.138824E-03   0.377296E+00   0.482945E+01
   0.265000E+04   0.554286E-04   0.139902E-03   0.377295E+00   0.482945E+01
   0.266000E+04   0.558703E-04   0.140978E-03   0.377294E+00   0.482945E+01
   0.267000E+04   0.563112E-04   0.142052E-03   0.377293E+00   0.482945E+01
   0.268000E+04   0.567511E-04   0.143124E-03   0.377292E+00   0.482945E+01
   0.269000E+04   0.571900E-04   0.144193E-03   0.377291E+00   0.482945E+01
   0.270000E+04   0.576279E-04   0.145261E-03   0.377289E+00   0.482945E+01
   0.271000E+04   0.580648E-04   0.146326E-03   0.377288E+00   0.482945E+01
   0.272000E+04   0.585007E-04   0.147388E-03   0.377287E+00   0.482945E+01
   0.273000E+04   0.589355E-04   0.148448E-03   0.377286E+00   0.482945E+01
   0.274000E+04   0.593692E-04   0.149506E-03   0.377285E+00   0.482945E+01
   0.275000E+04   0.598017E-04   0.150561E-03   0.377284E+00   0.482945E+01
   0.276000E+04   0.602332E-04   0.151613E-03   0.377283E+00   0.482945E+01
   0.277000E+04   0.606635E-04   0.152662E-03   0.377281E+00   0.482945E+01
   0.278000E+04   0.610926E-04   0.153709E-03   0.377280E+00   0.482945E+01
   0.279000E+04   0.615205E-04   0.154752E-03   0.377279E+00   0.482945E+01
   0.280000E+04   0.619472E-04   0.155793E-03   0.377278E+00   0.482945E+01
   0.281000E+04   0.623727E-04   0.156831E-03   0.377277E+00   0.482945E+01
   0.282000E+04   0.627970E-04   0.157865E-03   0.377276E+00   0.482945E+01
   0.283000E+04   0.632201E-04   0.158897E-03   0.377275E+00   0.482945E+01
   0.284000E+04   0.636419E-04   0.159925E-03   0.377274E+00   0.482945E+01
   0.285000E+04   0.640625E-04   0.160950E-03   0.377272E+00   0.482945E+01
   0.286000E+04   0.644819E-04   0.161972E-03   0.377271E+00   0.482945E+01
   0.287000E+04   0.649000E-04   0.162991E-03   0.377270E+00   0.482945E+01
   0.288000E+04   0.653169E-04   0.164007E-03   0.377269E+00   0.482945E+01
   0.289000E+04   0.657326E-04   0.165020E-03   0.377268E+00   0.482945E+01
   0.290000E+04   0.661470E-04   0.166029E-03   0.377267E+00   0.482945E+01
   0.291000E+04   0.665603E-04   0.167036E-03   0.377266E+00   0.482945E+01
   0.292000E+04   0.669724E-04   0.168039E-03   0.377264E+00   0.482945E+01
   0.293000E+04   0.673833E-04   0.169040E-03   0.377263E+00   0.482945E+01
   0.294000E+04   0.677930E-04   0.170037E-03   0.377262E+00   0.482945E+01
   0.295000E+04   0.682016E-04   0.171031E-03   0.377261E+00   0.482945E+01
   0.296000E+04   0.686090E-04   0.172023E-03   0.377260E+00   0.482945E+01
   0.297000E+04   0.690154E-04   0.173011E-03   0.377259E+00   0.482945E+01
   0.298000E+04   0.694207E-04   0.173997E-03   0.377258E+00   0.482945E+01
   0.299000E+04   0.698249E-04   0.174980E-03   0.377256E+00   0.482945E+01
   0.300000E+04   0.702281E-04   0.175960E-03   0.377255E+00   0.482945E+01
   0.301000E+04   0.706302E-04   0.176938E-03   0.377254E+00   0.482945E+01
   0.302000E+04   0.710314E-04   0.177913E-03   0.377253E+00   0.482945E+01
   0.303000E+04   0.714317E-04   0.178886E-03   0.377252E+00   0.482945E+01
   0.304000E+04   0.718310E-04   0.179856E-03   0.377251E+00   0.482945E+01
   0.305000E+04   0.722293E-04   0.180824E-03   0.377250E+00   0.482945E+01
   0.306000E+04   0.726269E-04   0.181789E-03   0.377248E+00   0.482945E+01
   0.307000E+04   0.730235E-04   0.182753E-03   0.377247E+00   0.482945E+01
   0.308000E+04   0.734193E-04   0.183714E-03   0.377246E+00   0.482945E+01
   0.309000E+04   0.738143E-04   0.184673E-03   0.377245E+00   0.482945E+01
   0.310000E+04   0.742086E-04   0.185630E-03   0.377244E+00   0.482945E+01
   0.311000E+04   0.746021E-04   0.186586E-03   0.377243E+00   0.482945E+01
   0.312000E+04   0.749948E-04   0.187539E-03   0.377242E+00   0.482945E+01
   0.313000E+04   0.753869E-04   0.188491E-03   0.377240E+00   0.482945E+01
   0.314000E+04   0.757782E-04   0.189441E-03   0.377239E+00   0.482945E+01
   0.315000E+04   0.761689E-04   0.190390E-03   0.377238E+00   0.482945E+01
   0.316000E+04   0.765589E-04   0.191336E-03   0.377237E+00   0.482945E+01
   0.317000E+04   0.769483E-04   0.192282E-03   0.377236E+00   0.482945E+01
   0.318000E+04   0.773370E-04   0.193226E-03   0.377235E+00   0.482945E+01
   0.319000E+04   0.777252E-04   0.194168E-03   0.377234E+00   0.482945E+01
   0.320000E+04   0.781127E-04   0.195109E-03   0.377233E+00   0.482945E+01
   0.321000E+04   0.784997E-04   0.196049E-03   0.377231E+00   0.482945E+01
   0.322000E+04   0.788861E-04   0.196988E-03   0.377230E+00   0.482945E+01
   0.323000E+04   0.792720E-04   0.197925E-03   0.377229E+00   0.482945E+01
   0.324000E+04   0.796572E-04   0.198861E-03   0.377228E+00   0.482945E+01
   0.325000E+04   0.800420E-04   0.199796E-03   0.377227E+00   0.482945E+01
   0.326000E+04   0.804262E-04   0.200729E-03   0.377226E+00   0.482945E+01
   0.327000E+04   0.808099E-04   0.201662E-03   0.377225E+00   0.482945E+01
   0.328000E+04   0.811931E-04   0.202594E-03   0.377224E+00   0.482945E+01
   0.329000E+04   0.815757E-04   0.203524E-03   0.377223E+00   0.482945E+01
   0.330000E+04   0.819579E-04   0.204453E-03   0.377221E+00   0.482945E+01
   0.331000E+04   0.823396E-04   0.205382E-03   0.377220E+00   0.482945E+01
   0.332000E+04   0.827207E-04   0.206309E-03   0.377219E+00   0.482945E+01
   0.333000E+04   0.831014E-04   0.207236E-03   0.377218E+00   0.482945E+01
   0.334000E+04   0.834816E-04   0.208161E-03   0.377217E+00   0.482945E+01
   0.335000E+04   0.838613E-04   0.209086E-03   0.377216E+00   0.482945E+01
   0.336000E+04   0.842405E-04   0.210009E-03   0.377215E+00   0.482945E+01
   0.337000E+04   0.846193E-04   0.210932E-03   0.377214E+00   0.482945E+01
   0.338000E+04   0.849976E-04   0.211854E-03   0.377213E+00   0.482945E+01
   0.339000E+04   0.853754E-04   0.212774E-03   0.377212E+00   0.482945E+01
   0.340000E+04   0.857528E-04   0.213695E-03   0.377211E+00   0.482945E+01
   0.341000E+04   0.861297E-04   0.214614E-03   0.377210E+00   0.482945E+01
   0.342000E+04   0.865061E-04   0.215532E-03   0.377209E+00   0.482945E+01
   0.343000E+04   0.868821E-04   0.216450E-03   0.377208E+00   0.482945E+01
   0.344000E+04   0.872576E-04   0.217366E-03   0.377206E+00   0.482945E+01
   0.345000E+04   0.876327E-04   0.218282E-03   0.377205E+00   0.482945E+01
   0.346000E+04   0.880072E-04   0.219197E-03   0.377204E+00   0.482945E+01
   0.347000E+04   0.883813E-04   0.220111E-03   0.377203E+00   0.482945E+01
   0.348000E+04   0.887549E-04   0.221025E-03   0.377202E+00   0.482945E+01
   0.349000E+04   0.891281E-04   0.221937E-03   0.377201E+00   0.482945E+01
   0.350000E+04   0.895007E-04   0.222849E-03   0.377200E+00   0.482945E+01
   0.351000E+04   0.898728E-04   0.223760E-03   0.377199E+00   0.482945E+01
   0.352000E+04   0.902443E-04   0.224670E-03   0.377198E+00   0.482945E+01
   0.353000E+04   0.906154E-04   0.225579E-03   0.377197E+00   0.482945E+01
   0.354000E+04   0.909858E-04   0.226487E-03   0.377196E+00   0.482945E+01
   0.355000E+04   0.913557E-04   0.227394E-03   0.377195E+00   0.482945E+01
   0.356000E+04   0.917249E-04   0.228300E-03   0.377194E+00   0.482945E+01
   0.357000E+04   0.920936E-04   0.229204E-03   0.377193E+00   0.482945E+01
   0.358000E+04   0.924616E-04   0.230108E-03   0.377192E+00   0.482945E+01
   0.359000E+04   0.928289E-04   0.231010E-03   0.377191E+00   0.482945E+01
   0.360000E+04   0.931955E-04   0.231911E-03   0.377190E+00   0.482945E+01
   0.361000E+04   0.935613E-04   0.232811E-03   0.377190E+00   0.482945E+01
   0.362000E+04   0.939264E-04   0.233709E-03   0.377189E+00   0.482945E+01
   0.363000E+04   0.942907E-04   0.234606E-03   0.377188E+00   0.482945E+01
   0.364000E+04   0.946541E-04   0.235501E-03   0.377187E+00   0.482945E+01
   0.365000E+04   0.950167E-04   0.236394E-03   0.377186E+00   0.482945E+01
   0.366000E+04   0.953784E-04   0.237285E-03   0.377185E+00   0.482945E+01
   0.367000E+04   0.957391E-04   0.238175E-03   0.377184E+00   0.482945E+01
   0.368000E+04   0.960988E-04   0.239062E-03   0.377183E+00   0.482945E+01
   0.369000E+04   0.964576E-04   0.239948E-03   0.377182E+00   0.482945E+01
   0.370000E+04   0.968153E-04   0.240831E-03   0.377181E+00   0.482945E+01
   0.371000E+04   0.971719E-04   0.241712E-03   0.377180E+00   0.482945E+01
   0.372000E+04   0.975273E-04   0.242590E-03   0.377179E+00   0.482945E+01
   0.373000E+04   0.978816E-04   0.243466E-03   0.377179E+00   0.482945E+01
   0.374000E+04   0.982348E-04   0.244339E-03   0.377178E+00   0.482945E+01
   0.375000E+04   0.985866E-04   0.245209E-03   0.377177E+00   0.482945E+01
   0.376000E+04   0.989373E-04   0.246076E-03   0.377176E+00   0.482945E+01
   0.377000E+04   0.992866E-04   0.246941E-03   0.377175E+00   0.482945E+01
   0.378000E+04   0.996346E-04   0.247802E-03   0.377174E+00   0.482945E+01
   0.379000E+04   0.999812E-04   0.248660E-03   0.377173E+00   0.482945E+01
   0.380000E+04   0.100326E-03   0.249515E-03   0.377172E+00   0.482945E+01
   0.381000E+04   0.100670E-03   0.250367E-03   0.377172E+00   0.482945E+01
   0.382000E+04   0.101013E-03   0.251215E-03   0.377171E+00   0.482945E+01
   0.383000E+04   0.101353E-03   0.252060E-03   0.377170E+00   0.482945E+01
   0.384000E+04   0.101693E-03   0.252901E-03   0.377169E+00   0.482945E+01
   0.385000E+04   0.102031E-03   0.253738E-03   0.377168E+00   0.482945E+01
   0.386000E+04   0.102367E-03   0.254572E-03   0.377167E+00   0.482945E+01
   0.387000E+04   0.102701E-03   0.255402E-03   0.377167E+00   0.482945E+01
   0.388000E+04   0.103035E-03   0.256228E-03   0.377166E+00   0.482945E+01
   0.389000E+04   0.103366E-03   0.257050E-03   0.377165E+00   0.482945E+01
   0.390000E+04   0.103696E-03   0.257868E-03   0.377164E+00   0.482945E+01
   0.391000E+04   0.104024E-03   0.258682E-03   0.377163E+00   0.482945E+01
   0.392000E+04   0.104351E-03   0.259491E-03   0.377163E+00   0.482945E+01
   0.393000E+04   0.104676E-03   0.260297E-03   0.377162E+00   0.482945E+01