title="breakthrough data set at     5 wells"
variables="time(days)","cavg","cpk","upk","zswi"
zone i=     1295
   0.100000E+02   0.211780E-09   0.332089E-09   0.465219E+00   0.485809E+01
   0.200000E+02   0.509868E-09   0.811401E-09   0.380035E+00   0.483499E+01
   0.300000E+02   0.101779E-08   0.162919E-08   0.379599E+00   0.483499E+01
   0.400000E+02   0.182431E-08   0.292653E-08   0.379604E+00   0.483499E+01
   0.500000E+02   0.304085E-08   0.487992E-08   0.379645E+00   0.483499E+01
   0.600000E+02   0.480425E-08   0.770565E-08   0.379705E+00   0.483499E+01
   0.700000E+02   0.727782E-08   0.116612E-07   0.379778E+00   0.483499E+01
   0.800000E+02   0.106495E-07   0.170415E-07   0.379861E+00   0.483499E+01
   0.900000E+02   0.151298E-07   0.241748E-07   0.379927E+00   0.483499E+01
   0.100000E+03   0.209406E-07   0.334029E-07   0.380013E+00   0.483499E+01
   0.110000E+03   0.283107E-07   0.450711E-07   0.380097E+00   0.483499E+01
   0.120000E+03   0.374665E-07   0.595122E-07   0.380179E+00   0.483499E+01
   0.130000E+03   0.486242E-07   0.770309E-07   0.380258E+00   0.483499E+01
   0.140000E+03   0.620243E-07   0.979562E-07   0.380263E+00   0.483499E+01
   0.150000E+03   0.778451E-07   0.122509E-06   0.380334E+00   0.483499E+01
   0.160000E+03   0.962475E-07   0.150867E-06   0.380405E+00   0.483499E+01
   0.170000E+03   0.117346E-06   0.183111E-06   0.380475E+00   0.483499E+01
   0.180000E+03   0.141191E-06   0.219202E-06   0.380542E+00   0.483499E+01
   0.190000E+03   0.167763E-06   0.258962E-06   0.380606E+00   0.483499E+01
   0.200000E+03   0.196967E-06   0.302068E-06   0.380667E+00   0.483499E+01
   0.210000E+03   0.228562E-06   0.347943E-06   0.380781E+00   0.483499E+01
   0.220000E+03   0.262412E-06   0.396141E-06   0.380781E+00   0.483499E+01
   0.230000E+03   0.298197E-06   0.445934E-06   0.380834E+00   0.483499E+01
   0.240000E+03   0.335596E-06   0.505510E-06   0.380884E+00   0.483499E+01
   0.250000E+03   0.374260E-06   0.573830E-06   0.380931E+00   0.483499E+01
   0.260000E+03   0.413815E-06   0.645667E-06   0.380976E+00   0.483499E+01
   0.270000E+03   0.453866E-06   0.720452E-06   0.381019E+00   0.483499E+01
   0.280000E+03   0.493995E-06   0.797536E-06   0.381059E+00   0.483499E+01
   0.290000E+03   0.533772E-06   0.876191E-06   0.381097E+00   0.483499E+01
   0.300000E+03   0.572752E-06   0.955604E-06   0.381134E+00   0.483499E+01
   0.310000E+03   0.610489E-06   0.103488E-05   0.381168E+00   0.483499E+01
   0.320000E+03   0.646542E-06   0.111306E-05   0.381201E+00   0.483499E+01
   0.330000E+03   0.680486E-06   0.118912E-05   0.381233E+00   0.483499E+01
   0.340000E+03   0.711923E-06   0.126201E-05   0.381263E+00   0.483499E+01
   0.350000E+03   0.740496E-06   0.133066E-05   0.381292E+00   0.483499E+01
   0.360000E+03   0.765891E-06   0.139403E-05   0.381319E+00   0.483499E+01
   0.370000E+03   0.787846E-06   0.145115E-05   0.381346E+00   0.483499E+01
   0.380000E+03   0.806150E-06   0.150111E-05   0.381371E+00   0.483499E+01
   0.390000E+03   0.820646E-06   0.154314E-05   0.381396E+00   0.483499E+01
   0.400000E+03   0.831226E-06   0.157655E-05   0.381419E+00   0.483499E+01
   0.410000E+03   0.837832E-06   0.160081E-05   0.381442E+00   0.483499E+01
   0.420000E+03   0.840449E-06   0.161552E-05   0.381463E+00   0.483499E+01
   0.430000E+03   0.839102E-06   0.162042E-05   0.381484E+00   0.483499E+01
   0.440000E+03   0.833851E-06   0.161535E-05   0.381504E+00   0.483499E+01
   0.450000E+03   0.824786E-06   0.160028E-05   0.381524E+00   0.483499E+01
   0.460000E+03   0.812018E-06   0.157524E-05   0.381542E+00   0.483499E+01
   0.470000E+03   0.795679E-06   0.154034E-05   0.381560E+00   0.483499E+01
   0.480000E+03   0.775910E-06   0.149572E-05   0.381577E+00   0.483499E+01
   0.490000E+03   0.752862E-06   0.144153E-05   0.381594E+00   0.483499E+01
   0.500000E+03   0.726690E-06   0.137794E-05   0.381610E+00   0.483499E+01
   0.510000E+03   0.697551E-06   0.145888E-05   0.381625E+00   0.483499E+01
   0.520000E+03   0.665610E-06   0.154229E-05   0.381640E+00   0.483499E+01
   0.530000E+03   0.631032E-06   0.162806E-05   0.381655E+00   0.483499E+01
   0.540000E+03   0.593998E-06   0.171619E-05   0.381669E+00   0.483499E+01
   0.550000E+03   0.554705E-06   0.180664E-05   0.381683E+00   0.483499E+01
   0.560000E+03   0.513375E-06   0.189941E-05   0.381697E+00   0.483499E+01
   0.570000E+03   0.470266E-06   0.199445E-05   0.381710E+00   0.483499E+01
   0.580000E+03   0.425680E-06   0.209174E-05   0.381723E+00   0.483499E+01
   0.590000E+03   0.379963E-06   0.219125E-05   0.381736E+00   0.483499E+01
   0.600000E+03   0.333513E-06   0.229292E-05   0.381748E+00   0.483499E+01
   0.610000E+03   0.286770E-06   0.239672E-05   0.381760E+00   0.483499E+01
   0.620000E+03   0.240209E-06   0.250259E-05   0.381772E+00   0.483499E+01
   0.630000E+03   0.194326E-06   0.261048E-05   0.381783E+00   0.483499E+01
   0.640000E+03   0.149625E-06   0.272033E-05   0.381795E+00   0.483499E+01
   0.650000E+03   0.106600E-06   0.283209E-05   0.381806E+00   0.483499E+01
   0.660000E+03   0.657211E-07   0.294570E-05   0.381816E+00   0.483499E+01
   0.670000E+03   0.274262E-07   0.306110E-05   0.381827E+00   0.483499E+01
   0.680000E+03  -0.788939E-08   0.317825E-05   0.381837E+00   0.483499E+01
   0.690000E+03  -0.398733E-07   0.329709E-05   0.381847E+00   0.483499E+01
   0.700000E+03  -0.682133E-07   0.341757E-05   0.381856E+00   0.483499E+01
   0.710000E+03  -0.926314E-07   0.353965E-05   0.381866E+00   0.483499E+01
   0.720000E+03  -0.112875E-06   0.366328E-05   0.381875E+00   0.483499E+01
   0.730000E+03  -0.128707E-06   0.378841E-05   0.381883E+00   0.483499E+01
   0.740000E+03  -0.139907E-06   0.391499E-05   0.381892E+00   0.483499E+01
   0.750000E+03  -0.146266E-06   0.404297E-05   0.381901E+00   0.483499E+01
   0.760000E+03  -0.147597E-06   0.417227E-05   0.381909E+00   0.483499E+01
   0.770000E+03  -0.143749E-06   0.430284E-05   0.381917E+00   0.483499E+01
   0.780000E+03  -0.134615E-06   0.443459E-05   0.381925E+00   0.483499E+01
   0.790000E+03  -0.120142E-06   0.456746E-05   0.381933E+00   0.483499E+01
   0.800000E+03  -0.100339E-06   0.470136E-05   0.381941E+00   0.483499E+01
   0.810000E+03  -0.752646E-07   0.483623E-05   0.381949E+00   0.483499E+01
   0.820000E+03  -0.450256E-07   0.497199E-05   0.381957E+00   0.483499E+01
   0.830000E+03  -0.975514E-08   0.510858E-05   0.381964E+00   0.483499E+01
   0.840000E+03   0.304034E-07   0.524595E-05   0.381972E+00   0.483499E+01
   0.850000E+03   0.753158E-07   0.538403E-05   0.381979E+00   0.483499E+01
   0.860000E+03   0.124874E-06   0.552279E-05   0.381987E+00   0.483499E+01
   0.870000E+03   0.179010E-06   0.566216E-05   0.381994E+00   0.483499E+01
   0.880000E+03   0.237705E-06   0.580211E-05   0.382001E+00   0.483499E+01
   0.890000E+03   0.300995E-06   0.594257E-05   0.382009E+00   0.483499E+01
   0.900000E+03   0.368974E-06   0.608350E-05   0.382016E+00   0.483499E+01
   0.910000E+03   0.441789E-06   0.622484E-05   0.382022E+00   0.483499E+01
   0.920000E+03   0.519635E-06   0.636654E-05   0.382029E+00   0.483499E+01
   0.930000E+03   0.602751E-06   0.650855E-05   0.382036E+00   0.483499E+01
   0.940000E+03   0.691415E-06   0.665081E-05   0.382043E+00   0.483499E+01
   0.950000E+03   0.785932E-06   0.679328E-05   0.382049E+00   0.483499E+01
   0.960000E+03   0.886628E-06   0.693590E-05   0.382055E+00   0.483499E+01
   0.970000E+03   0.993846E-06   0.707863E-05   0.382062E+00   0.483499E+01
   0.980000E+03   0.110793E-05   0.722144E-05   0.382068E+00   0.483499E+01
   0.990000E+03   0.122924E-05   0.736427E-05   0.382074E+00   0.483499E+01
   0.100000E+04   0.135812E-05   0.750709E-05   0.382080E+00   0.483499E+01
   0.101000E+04   0.149490E-05   0.764988E-05   0.382085E+00   0.483499E+01
   0.102000E+04   0.163990E-05   0.779260E-05   0.382091E+00   0.483499E+01
   0.103000E+04   0.179342E-05   0.793522E-05   0.382097E+00   0.483499E+01
   0.104000E+04   0.195573E-05   0.807773E-05   0.382102E+00   0.483499E+01
   0.105000E+04   0.212709E-05   0.822012E-05   0.382107E+00   0.483499E+01
   0.106000E+04   0.230770E-05   0.836236E-05   0.382113E+00   0.483499E+01
   0.107000E+04   0.249775E-05   0.850445E-05   0.382118E+00   0.483499E+01
   0.108000E+04   0.269741E-05   0.864639E-05   0.382123E+00   0.483499E+01
   0.109000E+04   0.290679E-05   0.878816E-05   0.382128E+00   0.483499E+01
   0.110000E+04   0.312599E-05   0.892976E-05   0.382133E+00   0.483499E+01
   0.111000E+04   0.335509E-05   0.907119E-05   0.382137E+00   0.483499E+01
   0.112000E+04   0.359413E-05   0.921246E-05   0.382142E+00   0.483499E+01
   0.113000E+04   0.384314E-05   0.935356E-05   0.382147E+00   0.483499E+01
   0.114000E+04   0.410211E-05   0.949449E-05   0.382151E+00   0.483499E+01
   0.115000E+04   0.437103E-05   0.963525E-05   0.382155E+00   0.483499E+01
   0.116000E+04   0.464985E-05   0.977584E-05   0.382160E+00   0.483499E+01
   0.117000E+04   0.493853E-05   0.991627E-05   0.382165E+00   0.483499E+01
   0.118000E+04   0.523700E-05   0.100565E-04   0.382168E+00   0.483499E+01
   0.119000E+04   0.554517E-05   0.101966E-04   0.382172E+00   0.483499E+01
   0.120000E+04   0.586296E-05   0.103365E-04   0.382177E+00   0.483499E+01
   0.121000E+04   0.619026E-05   0.104763E-04   0.382181E+00   0.483499E+01
   0.122000E+04   0.652699E-05   0.106158E-04   0.382184E+00   0.483499E+01
   0.123000E+04   0.687303E-05   0.107552E-04   0.382187E+00   0.483499E+01
   0.124000E+04   0.722828E-05   0.108944E-04   0.382191E+00   0.483499E+01
   0.125000E+04   0.759264E-05   0.110335E-04   0.382196E+00   0.483499E+01
   0.126000E+04   0.796569E-05   0.111724E-04   0.382203E+00   0.483499E+01
   0.127000E+04   0.834739E-05   0.113112E-04   0.382205E+00   0.483499E+01
   0.128000E+04   0.873776E-05   0.114498E-04   0.382205E+00   0.483499E+01
   0.129000E+04   0.913682E-05   0.115882E-04   0.382208E+00   0.483499E+01
   0.130000E+04   0.954465E-05   0.123484E-04   0.382213E+00   0.483499E+01
   0.131000E+04   0.996132E-05   0.131870E-04   0.382217E+00   0.483499E+01
   0.132000E+04   0.103869E-04   0.140497E-04   0.382219E+00   0.483499E+01
   0.133000E+04   0.108214E-04   0.149370E-04   0.382220E+00   0.483499E+01
   0.134000E+04   0.112649E-04   0.158494E-04   0.382221E+00   0.483499E+01
   0.135000E+04   0.117173E-04   0.167870E-04   0.382224E+00   0.483499E+01
   0.136000E+04   0.121786E-04   0.177501E-04   0.382228E+00   0.483499E+01
   0.137000E+04   0.126489E-04   0.187389E-04   0.382231E+00   0.483499E+01
   0.138000E+04   0.131280E-04   0.197537E-04   0.382233E+00   0.483499E+01
   0.139000E+04   0.136161E-04   0.207947E-04   0.382234E+00   0.483499E+01
   0.140000E+04   0.141129E-04   0.218621E-04   0.382234E+00   0.483499E+01
   0.141000E+04   0.146187E-04   0.229559E-04   0.382236E+00   0.483499E+01
   0.142000E+04   0.151331E-04   0.240763E-04   0.382239E+00   0.483499E+01
   0.143000E+04   0.156564E-04   0.252231E-04   0.382242E+00   0.483499E+01
   0.144000E+04   0.161883E-04   0.263967E-04   0.382244E+00   0.483499E+01
   0.145000E+04   0.167290E-04   0.275971E-04   0.382245E+00   0.483499E+01
   0.146000E+04   0.172783E-04   0.288245E-04   0.382245E+00   0.483499E+01
   0.147000E+04   0.178363E-04   0.300787E-04   0.382245E+00   0.483499E+01
   0.148000E+04   0.184028E-04   0.313598E-04   0.382248E+00   0.483499E+01
   0.149000E+04   0.189779E-04   0.326676E-04   0.382251E+00   0.483499E+01
   0.150000E+04   0.195613E-04   0.340021E-04   0.382253E+00   0.483499E+01
   0.151000E+04   0.201531E-04   0.353634E-04   0.382254E+00   0.483499E+01
   0.152000E+04   0.207532E-04   0.367512E-04   0.382254E+00   0.483499E+01
   0.153000E+04   0.213614E-04   0.381654E-04   0.382255E+00   0.483499E+01
   0.154000E+04   0.219776E-04   0.396056E-04   0.382257E+00   0.483499E+01
   0.155000E+04   0.226016E-04   0.410714E-04   0.382260E+00   0.483499E+01
   0.156000E+04   0.232332E-04   0.425625E-04   0.382262E+00   0.483499E+01
   0.157000E+04   0.238723E-04   0.440783E-04   0.382264E+00   0.483499E+01
   0.158000E+04   0.245187E-04   0.456187E-04   0.382263E+00   0.483499E+01
   0.159000E+04   0.251721E-04   0.471828E-04   0.382263E+00   0.483499E+01
   0.160000E+04   0.258322E-04   0.487702E-04   0.382264E+00   0.483499E+01
   0.161000E+04   0.264987E-04   0.503798E-04   0.382267E+00   0.483499E+01
   0.162000E+04   0.271714E-04   0.520110E-04   0.382269E+00   0.483499E+01
   0.163000E+04   0.278499E-04   0.536630E-04   0.382271E+00   0.483499E+01
   0.164000E+04   0.285340E-04   0.553351E-04   0.382271E+00   0.483499E+01
   0.165000E+04   0.292233E-04   0.570265E-04   0.382271E+00   0.483499E+01
   0.166000E+04   0.299176E-04   0.587363E-04   0.382271E+00   0.483499E+01
   0.167000E+04   0.306163E-04   0.604633E-04   0.382273E+00   0.483499E+01
   0.168000E+04   0.313193E-04   0.622067E-04   0.382276E+00   0.483499E+01
   0.169000E+04   0.320261E-04   0.639656E-04   0.382278E+00   0.483499E+01
   0.170000E+04   0.327366E-04   0.657393E-04   0.382278E+00   0.483499E+01
   0.171000E+04   0.334504E-04   0.675271E-04   0.382278E+00   0.483499E+01
   0.172000E+04   0.341674E-04   0.693282E-04   0.382278E+00   0.483499E+01
   0.173000E+04   0.348872E-04   0.711418E-04   0.382279E+00   0.483499E+01
   0.174000E+04   0.356097E-04   0.729672E-04   0.382281E+00   0.483499E+01
   0.175000E+04   0.363346E-04   0.748038E-04   0.382283E+00   0.483499E+01
   0.176000E+04   0.370619E-04   0.766514E-04   0.382284E+00   0.483499E+01
   0.177000E+04   0.377916E-04   0.785099E-04   0.382283E+00   0.483499E+01
   0.178000E+04   0.385237E-04   0.803789E-04   0.382283E+00   0.483499E+01
   0.179000E+04   0.392581E-04   0.822582E-04   0.382283E+00   0.483499E+01
   0.180000E+04   0.399948E-04   0.841477E-04   0.382285E+00   0.483499E+01
   0.181000E+04   0.407339E-04   0.860473E-04   0.382286E+00   0.483499E+01
   0.182000E+04   0.414756E-04   0.879573E-04   0.382288E+00   0.483499E+01
   0.183000E+04   0.422201E-04   0.898782E-04   0.382287E+00   0.483499E+01
   0.184000E+04   0.429676E-04   0.918101E-04   0.382286E+00   0.483499E+01
   0.185000E+04   0.437181E-04   0.937534E-04   0.382285E+00   0.483499E+01
   0.186000E+04   0.444719E-04   0.957082E-04   0.382286E+00   0.483499E+01
   0.187000E+04   0.452290E-04   0.976747E-04   0.382288E+00   0.483499E+01
   0.188000E+04   0.459897E-04   0.996534E-04   0.382289E+00   0.483499E+01
   0.189000E+04   0.467542E-04   0.101645E-03   0.382289E+00   0.483499E+01
   0.190000E+04   0.475227E-04   0.103649E-03   0.382287E+00   0.483499E+01
   0.191000E+04   0.482953E-04   0.105667E-03   0.382286E+00   0.483499E+01
   0.192000E+04   0.490721E-04   0.107699E-03   0.382286E+00   0.483499E+01
   0.193000E+04   0.498530E-04   0.109743E-03   0.382288E+00   0.483499E+01
   0.194000E+04   0.506382E-04   0.111802E-03   0.382289E+00   0.483499E+01
   0.195000E+04   0.514277E-04   0.113874E-03   0.382289E+00   0.483499E+01
   0.196000E+04   0.522217E-04   0.115960E-03   0.382288E+00   0.483499E+01
   0.197000E+04   0.530201E-04   0.118060E-03   0.382286E+00   0.483499E+01
   0.198000E+04   0.538229E-04   0.120173E-03   0.382286E+00   0.483499E+01
   0.199000E+04   0.546298E-04   0.122300E-03   0.382287E+00   0.483499E+01
   0.200000E+04   0.554409E-04   0.124439E-03   0.382288E+00   0.483499E+01
   0.201000E+04   0.562560E-04   0.126592E-03   0.382289E+00   0.483499E+01
   0.202000E+04   0.570751E-04   0.128757E-03   0.382288E+00   0.483499E+01
   0.203000E+04   0.578983E-04   0.130934E-03   0.382286E+00   0.483499E+01
   0.204000E+04   0.587252E-04   0.133123E-03   0.382285E+00   0.483499E+01
   0.205000E+04   0.595556E-04   0.135322E-03   0.382286E+00   0.483499E+01
   0.206000E+04   0.603892E-04   0.137532E-03   0.382287E+00   0.483499E+01
   0.207000E+04   0.612259E-04   0.139751E-03   0.382288E+00   0.483499E+01
   0.208000E+04   0.620656E-04   0.141980E-03   0.382287E+00   0.483499E+01
   0.209000E+04   0.629081E-04   0.144217E-03   0.382285E+00   0.483499E+01
   0.210000E+04   0.637532E-04   0.146462E-03   0.382284E+00   0.483499E+01
   0.211000E+04   0.646005E-04   0.148714E-03   0.382284E+00   0.483499E+01
   0.212000E+04   0.654497E-04   0.150971E-03   0.382285E+00   0.483499E+01
   0.213000E+04   0.663005E-04   0.153234E-03   0.382286E+00   0.483499E+01
   0.214000E+04   0.671527E-04   0.155500E-03   0.382286E+00   0.483499E+01
   0.215000E+04   0.680062E-04   0.157771E-03   0.382284E+00   0.483499E+01
   0.216000E+04   0.688608E-04   0.160044E-03   0.382283E+00   0.483499E+01
   0.217000E+04   0.697160E-04   0.162319E-03   0.382282E+00   0.483499E+01
   0.218000E+04   0.705715E-04   0.164595E-03   0.382283E+00   0.483499E+01
   0.219000E+04   0.714270E-04   0.166871E-03   0.382284E+00   0.483499E+01
   0.220000E+04   0.722823E-04   0.169146E-03   0.382284E+00   0.483499E+01
   0.221000E+04   0.731373E-04   0.171420E-03   0.382283E+00   0.483499E+01
   0.222000E+04   0.739917E-04   0.173691E-03   0.382281E+00   0.483499E+01
   0.223000E+04   0.748454E-04   0.175960E-03   0.382280E+00   0.483499E+01
   0.224000E+04   0.756978E-04   0.178225E-03   0.382280E+00   0.483499E+01
   0.225000E+04   0.765488E-04   0.180485E-03   0.382281E+00   0.483499E+01
   0.226000E+04   0.773981E-04   0.182740E-03   0.382282E+00   0.483499E+01
   0.227000E+04   0.782457E-04   0.184990E-03   0.382281E+00   0.483499E+01
   0.228000E+04   0.790914E-04   0.187233E-03   0.382279E+00   0.483499E+01
   0.229000E+04   0.799352E-04   0.189470E-03   0.382278E+00   0.483499E+01
   0.230000E+04   0.807766E-04   0.191700E-03   0.382278E+00   0.483499E+01
   0.231000E+04   0.816154E-04   0.193921E-03   0.382279E+00   0.483499E+01
   0.232000E+04   0.824515E-04   0.196134E-03   0.382279E+00   0.483499E+01
   0.233000E+04   0.832847E-04   0.198338E-03   0.382279E+00   0.483499E+01
   0.234000E+04   0.841152E-04   0.200534E-03   0.382278E+00   0.483499E+01
   0.235000E+04   0.849427E-04   0.202720E-03   0.382276E+00   0.483499E+01
   0.236000E+04   0.857672E-04   0.204897E-03   0.382276E+00   0.483499E+01
   0.237000E+04   0.865883E-04   0.207063E-03   0.382276E+00   0.483499E+01
   0.238000E+04   0.874058E-04   0.209219E-03   0.382277E+00   0.483499E+01
   0.239000E+04   0.882198E-04   0.211364E-03   0.382277E+00   0.483499E+01
   0.240000E+04   0.890304E-04   0.213498E-03   0.382276E+00   0.483499E+01
   0.241000E+04   0.898375E-04   0.215622E-03   0.382275E+00   0.483499E+01
   0.242000E+04   0.906409E-04   0.217735E-03   0.382274E+00   0.483499E+01
   0.243000E+04   0.914405E-04   0.219836E-03   0.382274E+00   0.483499E+01
   0.244000E+04   0.922361E-04   0.221925E-03   0.382274E+00   0.483499E+01
   0.245000E+04   0.930277E-04   0.224002E-03   0.382274E+00   0.483499E+01
   0.246000E+04   0.938153E-04   0.226067E-03   0.382274E+00   0.483499E+01
   0.247000E+04   0.945991E-04   0.228121E-03   0.382273E+00   0.483499E+01
   0.248000E+04   0.953789E-04   0.230163E-03   0.382271E+00   0.483499E+01
   0.249000E+04   0.961546E-04   0.232193E-03   0.382271E+00   0.483499E+01
   0.250000E+04   0.969260E-04   0.234210E-03   0.382271E+00   0.483499E+01
   0.251000E+04   0.976931E-04   0.236214E-03   0.382271E+00   0.483499E+01
   0.252000E+04   0.984558E-04   0.238206E-03   0.382271E+00   0.483499E+01
   0.253000E+04   0.992144E-04   0.240185E-03   0.382270E+00   0.483499E+01
   0.254000E+04   0.999689E-04   0.242152E-03   0.382269E+00   0.483499E+01
   0.255000E+04   0.100719E-03   0.244107E-03   0.382268E+00   0.483499E+01
   0.256000E+04   0.101465E-03   0.246049E-03   0.382268E+00   0.483499E+01
   0.257000E+04   0.102206E-03   0.247977E-03   0.382268E+00   0.483499E+01
   0.258000E+04   0.102942E-03   0.249892E-03   0.382268E+00   0.483499E+01
   0.259000E+04   0.103675E-03   0.251795E-03   0.382268E+00   0.483499E+01
   0.260000E+04   0.104402E-03   0.253685E-03   0.382266E+00   0.483499E+01
   0.261000E+04   0.105126E-03   0.255562E-03   0.382265E+00   0.483499E+01
   0.262000E+04   0.105844E-03   0.257426E-03   0.382265E+00   0.483499E+01
   0.263000E+04   0.106558E-03   0.259276E-03   0.382265E+00   0.483499E+01
   0.264000E+04   0.107268E-03   0.261113E-03   0.382265E+00   0.483499E+01
   0.265000E+04   0.107972E-03   0.262936E-03   0.382265E+00   0.483499E+01
   0.266000E+04   0.108672E-03   0.264746E-03   0.382264E+00   0.483499E+01
   0.267000E+04   0.109367E-03   0.266543E-03   0.382263E+00   0.483499E+01
   0.268000E+04   0.110058E-03   0.268326E-03   0.382262E+00   0.483499E+01
   0.269000E+04   0.110743E-03   0.270096E-03   0.382262E+00   0.483499E+01
   0.270000E+04   0.111424E-03   0.271851E-03   0.382263E+00   0.483499E+01
   0.271000E+04   0.112099E-03   0.273593E-03   0.382263E+00   0.483499E+01
   0.272000E+04   0.112770E-03   0.275320E-03   0.382262E+00   0.483499E+01
   0.273000E+04   0.113436E-03   0.277034E-03   0.382261E+00   0.483499E+01
   0.274000E+04   0.114097E-03   0.278735E-03   0.382260E+00   0.483499E+01
   0.275000E+04   0.114753E-03   0.280421E-03   0.382260E+00   0.483499E+01
   0.276000E+04   0.115404E-03   0.282092E-03   0.382260E+00   0.483499E+01
   0.277000E+04   0.116049E-03   0.283749E-03   0.382260E+00   0.483499E+01
   0.278000E+04   0.116689E-03   0.285391E-03   0.382260E+00   0.483499E+01
   0.279000E+04   0.117325E-03   0.287019E-03   0.382259E+00   0.483499E+01
   0.280000E+04   0.117955E-03   0.288634E-03   0.382258E+00   0.483499E+01
   0.281000E+04   0.118580E-03   0.290233E-03   0.382257E+00   0.483499E+01
   0.282000E+04   0.119200E-03   0.291817E-03   0.382258E+00   0.483499E+01
   0.283000E+04   0.119814E-03   0.293387E-03   0.382258E+00   0.483499E+01
   0.284000E+04   0.120423E-03   0.294941E-03   0.382258E+00   0.483499E+01
   0.285000E+04   0.121026E-03   0.296481E-03   0.382257E+00   0.483499E+01
   0.286000E+04   0.121625E-03   0.298006E-03   0.382256E+00   0.483499E+01
   0.287000E+04   0.122218E-03   0.299516E-03   0.382256E+00   0.483499E+01
   0.288000E+04   0.122805E-03   0.301011E-03   0.382256E+00   0.483499E+01
   0.289000E+04   0.123387E-03   0.302489E-03   0.382256E+00   0.483499E+01
   0.290000E+04   0.123963E-03   0.303952E-03   0.382257E+00   0.483499E+01
   0.291000E+04   0.124533E-03   0.305401E-03   0.382256E+00   0.483499E+01
   0.292000E+04   0.125099E-03   0.306834E-03   0.382255E+00   0.483499E+01
   0.293000E+04   0.125659E-03   0.308252E-03   0.382254E+00   0.483499E+01
   0.294000E+04   0.126213E-03   0.309655E-03   0.382254E+00   0.483499E+01
   0.295000E+04   0.126761E-03   0.311040E-03   0.382255E+00   0.483499E+01
   0.296000E+04   0.127302E-03   0.312409E-03   0.382256E+00   0.483499E+01
   0.297000E+04   0.127838E-03   0.313761E-03   0.382256E+00   0.483499E+01
   0.298000E+04   0.128369E-03   0.315097E-03   0.382255E+00   0.483499E+01
   0.299000E+04   0.128895E-03   0.316420E-03   0.382254E+00   0.483499E+01
   0.300000E+04   0.129414E-03   0.317729E-03   0.382253E+00   0.483499E+01
   0.301000E+04   0.129928E-03   0.319024E-03   0.382255E+00   0.483499E+01
   0.302000E+04   0.130433E-03   0.320300E-03   0.382256E+00   0.483499E+01
   0.303000E+04   0.130931E-03   0.321556E-03   0.382258E+00   0.483499E+01
   0.304000E+04   0.131420E-03   0.322790E-03   0.382258E+00   0.483499E+01
   0.305000E+04   0.131902E-03   0.324005E-03   0.382257E+00   0.483499E+01
   0.306000E+04   0.132380E-03   0.325206E-03   0.382256E+00   0.483499E+01
   0.307000E+04   0.132856E-03   0.326402E-03   0.382256E+00   0.483499E+01
   0.308000E+04   0.133329E-03   0.327595E-03   0.382257E+00   0.483499E+01
   0.309000E+04   0.133798E-03   0.328786E-03   0.382258E+00   0.483499E+01
   0.310000E+04   0.134261E-03   0.329969E-03   0.382259E+00   0.483499E+01
   0.311000E+04   0.134718E-03   0.331141E-03   0.382259E+00   0.483499E+01
   0.312000E+04   0.135170E-03   0.332299E-03   0.382258E+00   0.483499E+01
   0.313000E+04   0.135618E-03   0.333447E-03   0.382258E+00   0.483499E+01
   0.314000E+04   0.136068E-03   0.334591E-03   0.382258E+00   0.483499E+01
   0.315000E+04   0.136519E-03   0.335741E-03   0.382258E+00   0.483499E+01
   0.316000E+04   0.136973E-03   0.336899E-03   0.382259E+00   0.483499E+01
   0.317000E+04   0.137426E-03   0.338065E-03   0.382259E+00   0.483499E+01
   0.318000E+04   0.137877E-03   0.339232E-03   0.382258E+00   0.483499E+01
   0.319000E+04   0.138324E-03   0.340393E-03   0.382258E+00   0.483499E+01
   0.320000E+04   0.138767E-03   0.341544E-03   0.382259E+00   0.483499E+01
   0.321000E+04   0.139208E-03   0.342686E-03   0.382259E+00   0.483499E+01
   0.322000E+04   0.139651E-03   0.343827E-03   0.382259E+00   0.483499E+01
   0.323000E+04   0.140096E-03   0.344972E-03   0.382259E+00   0.483499E+01
   0.324000E+04   0.140543E-03   0.346126E-03   0.382258E+00   0.483499E+01
   0.325000E+04   0.140989E-03   0.347282E-03   0.382258E+00   0.483499E+01
   0.326000E+04   0.141431E-03   0.348436E-03   0.382258E+00   0.483499E+01
   0.327000E+04   0.141868E-03   0.349578E-03   0.382259E+00   0.483499E+01
   0.328000E+04   0.142302E-03   0.350708E-03   0.382260E+00   0.483499E+01
   0.329000E+04   0.142733E-03   0.351828E-03   0.382260E+00   0.483499E+01
   0.330000E+04   0.143166E-03   0.352946E-03   0.382258E+00   0.483499E+01
   0.331000E+04   0.143601E-03   0.354068E-03   0.382257E+00   0.483499E+01
   0.332000E+04   0.144036E-03   0.355195E-03   0.382257E+00   0.483499E+01
   0.333000E+04   0.144469E-03   0.356323E-03   0.382258E+00   0.483499E+01
   0.334000E+04   0.144898E-03   0.357445E-03   0.382259E+00   0.483499E+01
   0.335000E+04   0.145322E-03   0.358555E-03   0.382260E+00   0.483499E+01
   0.336000E+04   0.145742E-03   0.359652E-03   0.382259E+00   0.483499E+01
   0.337000E+04   0.146161E-03   0.360740E-03   0.382257E+00   0.483499E+01
   0.338000E+04   0.146582E-03   0.361828E-03   0.382256E+00   0.483499E+01
   0.339000E+04   0.147005E-03   0.362920E-03   0.382256E+00   0.483499E+01
   0.340000E+04   0.147428E-03   0.364018E-03   0.382257E+00   0.483499E+01
   0.341000E+04   0.147850E-03   0.365117E-03   0.382258E+00   0.483499E+01
   0.342000E+04   0.148266E-03   0.366209E-03   0.382258E+00   0.483499E+01
   0.343000E+04   0.148679E-03   0.367291E-03   0.382258E+00   0.483499E+01
   0.344000E+04   0.149088E-03   0.368359E-03   0.382257E+00   0.483499E+01
   0.345000E+04   0.149496E-03   0.369420E-03   0.382256E+00   0.483499E+01
   0.346000E+04   0.149906E-03   0.370480E-03   0.382256E+00   0.483499E+01
   0.347000E+04   0.150319E-03   0.371547E-03   0.382256E+00   0.483499E+01
   0.348000E+04   0.150733E-03   0.372621E-03   0.382257E+00   0.483499E+01
   0.349000E+04   0.151145E-03   0.373696E-03   0.382256E+00   0.483499E+01
   0.350000E+04   0.151552E-03   0.374764E-03   0.382256E+00   0.483499E+01
   0.351000E+04   0.151954E-03   0.375819E-03   0.382256E+00   0.483499E+01
   0.352000E+04   0.152353E-03   0.376861E-03   0.382256E+00   0.483499E+01
   0.353000E+04   0.152752E-03   0.377895E-03   0.382256E+00   0.483499E+01
   0.354000E+04   0.153154E-03   0.378930E-03   0.382256E+00   0.483499E+01
   0.355000E+04   0.153558E-03   0.379973E-03   0.382255E+00   0.483499E+01
   0.356000E+04   0.153963E-03   0.381023E-03   0.382254E+00   0.483499E+01
   0.357000E+04   0.154365E-03   0.382073E-03   0.382254E+00   0.483499E+01
   0.358000E+04   0.154763E-03   0.383115E-03   0.382254E+00   0.483499E+01
   0.359000E+04   0.155155E-03   0.384141E-03   0.382255E+00   0.483499E+01
   0.360000E+04   0.155544E-03   0.385152E-03   0.382256E+00   0.483499E+01
   0.361000E+04   0.155933E-03   0.386158E-03   0.382255E+00   0.483499E+01
   0.362000E+04   0.156326E-03   0.387166E-03   0.382253E+00   0.483499E+01
   0.363000E+04   0.156721E-03   0.388182E-03   0.382252E+00   0.483499E+01
   0.364000E+04   0.157117E-03   0.389204E-03   0.382252E+00   0.483499E+01
   0.365000E+04   0.157509E-03   0.390225E-03   0.382253E+00   0.483499E+01
   0.366000E+04   0.157896E-03   0.391235E-03   0.382254E+00   0.483499E+01
   0.367000E+04   0.158277E-03   0.392229E-03   0.382255E+00   0.483499E+01
   0.368000E+04   0.158656E-03   0.393209E-03   0.382254E+00   0.483499E+01
   0.369000E+04   0.159036E-03   0.394184E-03   0.382252E+00   0.483499E+01
   0.370000E+04   0.159418E-03   0.395162E-03   0.382251E+00   0.483499E+01
   0.371000E+04   0.159804E-03   0.396147E-03   0.382251E+00   0.483499E+01
   0.372000E+04   0.160189E-03   0.397138E-03   0.382252E+00   0.483499E+01
   0.373000E+04   0.160570E-03   0.398127E-03   0.382253E+00   0.483499E+01
   0.374000E+04   0.160946E-03   0.399104E-03   0.382253E+00   0.483499E+01
   0.375000E+04   0.161317E-03   0.400066E-03   0.382252E+00   0.483499E+01
   0.376000E+04   0.161686E-03   0.401014E-03   0.382251E+00   0.483499E+01
   0.377000E+04   0.162055E-03   0.401956E-03   0.382250E+00   0.483499E+01
   0.378000E+04   0.162427E-03   0.402900E-03   0.382250E+00   0.483499E+01
   0.379000E+04   0.162801E-03   0.403852E-03   0.382251E+00   0.483499E+01
   0.380000E+04   0.163175E-03   0.404810E-03   0.382251E+00   0.483499E+01
   0.381000E+04   0.163546E-03   0.405767E-03   0.382251E+00   0.483499E+01
   0.382000E+04   0.163911E-03   0.406712E-03   0.382251E+00   0.483499E+01
   0.383000E+04   0.164271E-03   0.407640E-03   0.382250E+00   0.483499E+01
   0.384000E+04   0.164627E-03   0.408553E-03   0.382250E+00   0.483499E+01
   0.385000E+04   0.164984E-03   0.409458E-03   0.382250E+00   0.483499E+01
   0.386000E+04   0.165344E-03   0.410367E-03   0.382250E+00   0.483499E+01
   0.387000E+04   0.165707E-03   0.411284E-03   0.382249E+00   0.483499E+01
   0.388000E+04   0.166069E-03   0.412208E-03   0.382249E+00   0.483499E+01
   0.389000E+04   0.166429E-03   0.413130E-03   0.382248E+00   0.483499E+01
   0.390000E+04   0.166782E-03   0.414040E-03   0.382249E+00   0.483499E+01
   0.391000E+04   0.167128E-03   0.414931E-03   0.382249E+00   0.483499E+01
   0.392000E+04   0.167471E-03   0.415805E-03   0.382250E+00   0.483499E+01
   0.393000E+04   0.167815E-03   0.416672E-03   0.382249E+00   0.483499E+01