title="breakthrough data set at     5 wells"
variables="time(days)","cavg","cpk","upk","zswi"
zone i=     1295
   0.100000E+02   0.346349E-09   0.787464E-09   0.448422E+00   0.485022E+01
   0.200000E+02   0.774855E-09   0.177267E-08   0.368811E+00   0.482680E+01
   0.300000E+02   0.148840E-08   0.340574E-08   0.368522E+00   0.482680E+01
   0.400000E+02   0.262880E-08   0.599438E-08   0.368553E+00   0.482680E+01
   0.500000E+02   0.439034E-08   0.995465E-08   0.368582E+00   0.482680E+01
   0.600000E+02   0.703229E-08   0.158345E-07   0.368599E+00   0.482680E+01
   0.700000E+02   0.108866E-07   0.243246E-07   0.368608E+00   0.482680E+01
   0.800000E+02   0.163581E-07   0.362526E-07   0.368615E+00   0.482680E+01
   0.900000E+02   0.239360E-07   0.526012E-07   0.368615E+00   0.482680E+01
   0.100000E+03   0.341814E-07   0.744725E-07   0.368615E+00   0.482680E+01
   0.110000E+03   0.477242E-07   0.103076E-06   0.368616E+00   0.482680E+01
   0.120000E+03   0.652541E-07   0.139704E-06   0.368615E+00   0.482680E+01
   0.130000E+03   0.875086E-07   0.185700E-06   0.368615E+00   0.482680E+01
   0.140000E+03   0.115278E-06   0.242479E-06   0.368613E+00   0.482680E+01
   0.150000E+03   0.149298E-06   0.311280E-06   0.368613E+00   0.482680E+01
   0.160000E+03   0.190334E-06   0.393350E-06   0.368614E+00   0.482680E+01
   0.170000E+03   0.239202E-06   0.490017E-06   0.368612E+00   0.482680E+01
   0.180000E+03   0.296606E-06   0.602312E-06   0.368612E+00   0.482680E+01
   0.190000E+03   0.363248E-06   0.731227E-06   0.368612E+00   0.482680E+01
   0.200000E+03   0.439780E-06   0.877624E-06   0.368612E+00   0.482680E+01
   0.210000E+03   0.526805E-06   0.104223E-05   0.368612E+00   0.482680E+01
   0.220000E+03   0.624861E-06   0.122562E-05   0.368611E+00   0.482680E+01
   0.230000E+03   0.734422E-06   0.142823E-05   0.368610E+00   0.482680E+01
   0.240000E+03   0.855895E-06   0.165034E-05   0.368609E+00   0.482680E+01
   0.250000E+03   0.989617E-06   0.189211E-05   0.368608E+00   0.482680E+01
   0.260000E+03   0.113585E-05   0.215353E-05   0.368607E+00   0.482680E+01
   0.270000E+03   0.129480E-05   0.243448E-05   0.368605E+00   0.482680E+01
   0.280000E+03   0.146660E-05   0.273473E-05   0.368603E+00   0.482680E+01
   0.290000E+03   0.165129E-05   0.305390E-05   0.368602E+00   0.482680E+01
   0.300000E+03   0.184890E-05   0.339154E-05   0.368600E+00   0.482680E+01
   0.310000E+03   0.205936E-05   0.374711E-05   0.368598E+00   0.482680E+01
   0.320000E+03   0.228256E-05   0.411997E-05   0.368596E+00   0.482680E+01
   0.330000E+03   0.251834E-05   0.450942E-05   0.368593E+00   0.482680E+01
   0.340000E+03   0.276650E-05   0.491473E-05   0.368590E+00   0.482680E+01
   0.350000E+03   0.302678E-05   0.533511E-05   0.368587E+00   0.482680E+01
   0.360000E+03   0.329892E-05   0.576972E-05   0.368583E+00   0.482680E+01
   0.370000E+03   0.358261E-05   0.621773E-05   0.368579E+00   0.482680E+01
   0.380000E+03   0.387751E-05   0.667827E-05   0.368574E+00   0.482680E+01
   0.390000E+03   0.418327E-05   0.715049E-05   0.368569E+00   0.482680E+01
   0.400000E+03   0.449951E-05   0.763353E-05   0.368563E+00   0.482680E+01
   0.410000E+03   0.482587E-05   0.812652E-05   0.368557E+00   0.482680E+01
   0.420000E+03   0.516194E-05   0.862861E-05   0.368550E+00   0.482680E+01
   0.430000E+03   0.550733E-05   0.913899E-05   0.368544E+00   0.482680E+01
   0.440000E+03   0.586161E-05   0.965683E-05   0.368537E+00   0.482680E+01
   0.450000E+03   0.622437E-05   0.101813E-04   0.368530E+00   0.482680E+01
   0.460000E+03   0.659518E-05   0.107117E-04   0.368524E+00   0.482680E+01
   0.470000E+03   0.697362E-05   0.112473E-04   0.368517E+00   0.482680E+01
   0.480000E+03   0.735924E-05   0.117873E-04   0.368510E+00   0.482680E+01
   0.490000E+03   0.775158E-05   0.123310E-04   0.368503E+00   0.482680E+01
   0.500000E+03   0.815018E-05   0.128779E-04   0.368497E+00   0.482680E+01
   0.510000E+03   0.855457E-05   0.134272E-04   0.368490E+00   0.482680E+01
   0.520000E+03   0.896424E-05   0.139783E-04   0.368484E+00   0.482680E+01
   0.530000E+03   0.937865E-05   0.145308E-04   0.368479E+00   0.482680E+01
   0.540000E+03   0.979726E-05   0.150839E-04   0.368474E+00   0.482680E+01
   0.550000E+03   0.102195E-04   0.156372E-04   0.368467E+00   0.482680E+01
   0.560000E+03   0.106448E-04   0.162270E-04   0.368461E+00   0.482680E+01
   0.570000E+03   0.110724E-04   0.168284E-04   0.368459E+00   0.482680E+01
   0.580000E+03   0.115021E-04   0.174304E-04   0.368443E+00   0.482680E+01
   0.590000E+03   0.119332E-04   0.180326E-04   0.368434E+00   0.482680E+01
   0.600000E+03   0.123643E-04   0.186336E-04   0.368454E+00   0.482680E+01
   0.610000E+03   0.127958E-04   0.192342E-04   0.368417E+00   0.482680E+01
   0.620000E+03   0.132269E-04   0.198333E-04   0.368402E+00   0.482680E+01
   0.630000E+03   0.136561E-04   0.204299E-04   0.368416E+00   0.482680E+01
   0.640000E+03   0.140825E-04   0.210232E-04   0.368430E+00   0.482680E+01
   0.650000E+03   0.145055E-04   0.216131E-04   0.368430E+00   0.482680E+01
   0.660000E+03   0.149247E-04   0.221992E-04   0.368407E+00   0.482680E+01
   0.670000E+03   0.153387E-04   0.227806E-04   0.368405E+00   0.482680E+01
   0.680000E+03   0.157463E-04   0.233565E-04   0.368413E+00   0.482680E+01
   0.690000E+03   0.161463E-04   0.239257E-04   0.368429E+00   0.482680E+01
   0.700000E+03   0.165382E-04   0.244883E-04   0.368415E+00   0.482680E+01
   0.710000E+03   0.169211E-04   0.250438E-04   0.368393E+00   0.482680E+01
   0.720000E+03   0.172935E-04   0.255910E-04   0.368400E+00   0.482680E+01
   0.730000E+03   0.176543E-04   0.261291E-04   0.368412E+00   0.482680E+01
   0.740000E+03   0.180024E-04   0.266576E-04   0.368422E+00   0.482680E+01
   0.750000E+03   0.183375E-04   0.271766E-04   0.368400E+00   0.482680E+01
   0.760000E+03   0.186586E-04   0.276855E-04   0.368382E+00   0.482680E+01
   0.770000E+03   0.189644E-04   0.281835E-04   0.368394E+00   0.482680E+01
   0.780000E+03   0.192539E-04   0.286700E-04   0.368409E+00   0.482680E+01
   0.790000E+03   0.195264E-04   0.291449E-04   0.368411E+00   0.482680E+01
   0.800000E+03   0.197817E-04   0.296085E-04   0.368386E+00   0.482680E+01
   0.810000E+03   0.200188E-04   0.300602E-04   0.368377E+00   0.482680E+01
   0.820000E+03   0.202369E-04   0.304997E-04   0.368387E+00   0.482680E+01
   0.830000E+03   0.204352E-04   0.309265E-04   0.368405E+00   0.482680E+01
   0.840000E+03   0.206135E-04   0.313410E-04   0.368398E+00   0.482680E+01
   0.850000E+03   0.207716E-04   0.317435E-04   0.368372E+00   0.482680E+01
   0.860000E+03   0.209089E-04   0.321334E-04   0.368375E+00   0.482680E+01
   0.870000E+03   0.210249E-04   0.325107E-04   0.368383E+00   0.482680E+01
   0.880000E+03   0.211193E-04   0.328752E-04   0.368402E+00   0.482680E+01
   0.890000E+03   0.211923E-04   0.332276E-04   0.368382E+00   0.482680E+01
   0.900000E+03   0.212440E-04   0.335680E-04   0.368359E+00   0.482680E+01
   0.910000E+03   0.212741E-04   0.338961E-04   0.368370E+00   0.482680E+01
   0.920000E+03   0.212825E-04   0.342119E-04   0.368384E+00   0.482680E+01
   0.930000E+03   0.212692E-04   0.345156E-04   0.368394E+00   0.482680E+01
   0.940000E+03   0.212350E-04   0.348078E-04   0.368367E+00   0.482680E+01
   0.950000E+03   0.211802E-04   0.350886E-04   0.368351E+00   0.482680E+01
   0.960000E+03   0.211049E-04   0.353580E-04   0.368365E+00   0.482680E+01
   0.970000E+03   0.210091E-04   0.356160E-04   0.368384E+00   0.482680E+01
   0.980000E+03   0.208937E-04   0.358630E-04   0.368383E+00   0.482680E+01
   0.990000E+03   0.207594E-04   0.360996E-04   0.368353E+00   0.482680E+01
   0.100000E+04   0.206066E-04   0.363258E-04   0.368351E+00   0.482680E+01
   0.101000E+04   0.204359E-04   0.365417E-04   0.368362E+00   0.482680E+01
   0.102000E+04   0.202476E-04   0.367475E-04   0.368382E+00   0.482680E+01
   0.103000E+04   0.200426E-04   0.369436E-04   0.368367E+00   0.482680E+01
   0.104000E+04   0.198220E-04   0.371306E-04   0.368341E+00   0.482680E+01
   0.105000E+04   0.195861E-04   0.373084E-04   0.368351E+00   0.482680E+01
   0.106000E+04   0.193355E-04   0.374771E-04   0.368366E+00   0.482680E+01
   0.107000E+04   0.190706E-04   0.376369E-04   0.368379E+00   0.482680E+01
   0.108000E+04   0.187929E-04   0.377887E-04   0.368348E+00   0.482680E+01
   0.109000E+04   0.185031E-04   0.379326E-04   0.368334E+00   0.482680E+01
   0.110000E+04   0.182017E-04   0.380688E-04   0.368349E+00   0.482680E+01
   0.111000E+04   0.178888E-04   0.381973E-04   0.368369E+00   0.482680E+01
   0.112000E+04   0.175655E-04   0.383186E-04   0.368365E+00   0.482680E+01
   0.113000E+04   0.172331E-04   0.384333E-04   0.368333E+00   0.482680E+01
   0.114000E+04   0.168918E-04   0.385415E-04   0.368337E+00   0.482680E+01
   0.115000E+04   0.165423E-04   0.386433E-04   0.368350E+00   0.482680E+01
   0.116000E+04   0.161847E-04   0.387389E-04   0.368369E+00   0.482680E+01
   0.117000E+04   0.158205E-04   0.388291E-04   0.368345E+00   0.482680E+01
   0.118000E+04   0.154505E-04   0.389140E-04   0.368324E+00   0.482680E+01
   0.119000E+04   0.150749E-04   0.389936E-04   0.368337E+00   0.482680E+01
   0.120000E+04   0.146938E-04   0.390681E-04   0.368357E+00   0.482680E+01
   0.121000E+04   0.143081E-04   0.391378E-04   0.368360E+00   0.482680E+01
   0.122000E+04   0.139193E-04   0.392034E-04   0.368324E+00   0.482680E+01
   0.123000E+04   0.135276E-04   0.392649E-04   0.368323E+00   0.482680E+01
   0.124000E+04   0.131335E-04   0.393225E-04   0.368337E+00   0.482680E+01
   0.125000E+04   0.127371E-04   0.393763E-04   0.368357E+00   0.482680E+01
   0.126000E+04   0.123396E-04   0.394267E-04   0.368341E+00   0.482680E+01
   0.127000E+04   0.119420E-04   0.394742E-04   0.368313E+00   0.482680E+01
   0.128000E+04   0.115444E-04   0.395589E-04   0.368324E+00   0.482680E+01
   0.129000E+04   0.111468E-04   0.396573E-04   0.368344E+00   0.482680E+01
   0.130000E+04   0.107499E-04   0.397528E-04   0.368353E+00   0.482680E+01
   0.131000E+04   0.103553E-04   0.398459E-04   0.368318E+00   0.482680E+01
   0.132000E+04   0.996324E-05   0.399366E-04   0.368308E+00   0.482680E+01
   0.133000E+04   0.957394E-05   0.400248E-04   0.368324E+00   0.482680E+01
   0.134000E+04   0.918715E-05   0.401106E-04   0.368345E+00   0.482680E+01
   0.135000E+04   0.880396E-05   0.401942E-04   0.368337E+00   0.482680E+01
   0.136000E+04   0.842570E-05   0.402760E-04   0.368304E+00   0.482680E+01
   0.137000E+04   0.805210E-05   0.403558E-04   0.368310E+00   0.482680E+01
   0.138000E+04   0.768341E-05   0.404337E-04   0.368325E+00   0.482680E+01
   0.139000E+04   0.731937E-05   0.405097E-04   0.368346E+00   0.482680E+01
   0.140000E+04   0.696173E-05   0.405842E-04   0.368319E+00   0.482680E+01
   0.141000E+04   0.661118E-05   0.406574E-04   0.368295E+00   0.482680E+01
   0.142000E+04   0.626736E-05   0.407291E-04   0.368307E+00   0.482680E+01
   0.143000E+04   0.592987E-05   0.407992E-04   0.368330E+00   0.482680E+01
   0.144000E+04   0.559937E-05   0.408679E-04   0.368335E+00   0.482680E+01
   0.145000E+04   0.527745E-05   0.409357E-04   0.368303E+00   0.482680E+01
   0.146000E+04   0.496419E-05   0.410024E-04   0.368291E+00   0.482680E+01
   0.147000E+04   0.465945E-05   0.410680E-04   0.368306E+00   0.482680E+01
   0.148000E+04   0.436256E-05   0.411323E-04   0.368330E+00   0.482680E+01
   0.149000E+04   0.407475E-05   0.411958E-04   0.368323E+00   0.482680E+01
   0.150000E+04   0.379736E-05   0.412586E-04   0.368291E+00   0.482680E+01
   0.151000E+04   0.353006E-05   0.413206E-04   0.368290E+00   0.482680E+01
   0.152000E+04   0.327287E-05   0.413818E-04   0.368304E+00   0.482680E+01
   0.153000E+04   0.302500E-05   0.414421E-04   0.368329E+00   0.482680E+01
   0.154000E+04   0.278822E-05   0.415020E-04   0.368313E+00   0.482680E+01
   0.155000E+04   0.256367E-05   0.415615E-04   0.368282E+00   0.482680E+01
   0.156000E+04   0.235075E-05   0.416206E-04   0.368285E+00   0.482680E+01
   0.157000E+04   0.214924E-05   0.416793E-04   0.368302E+00   0.482680E+01
   0.158000E+04   0.195862E-05   0.417374E-04   0.368325E+00   0.482680E+01
   0.159000E+04   0.178080E-05   0.417955E-04   0.368304E+00   0.482680E+01
   0.160000E+04   0.161678E-05   0.418537E-04   0.368274E+00   0.482680E+01
   0.161000E+04   0.146572E-05   0.419118E-04   0.368280E+00   0.482680E+01
   0.162000E+04   0.132711E-05   0.419699E-04   0.368299E+00   0.482680E+01
   0.163000E+04   0.120069E-05   0.420277E-04   0.368319E+00   0.482680E+01
   0.164000E+04   0.108820E-05   0.420859E-04   0.368297E+00   0.482680E+01
   0.165000E+04   0.990615E-06   0.421445E-04   0.368267E+00   0.482680E+01
   0.166000E+04   0.906899E-06   0.422033E-04   0.368274E+00   0.482680E+01
   0.167000E+04   0.836327E-06   0.422621E-04   0.368295E+00   0.482680E+01
   0.168000E+04   0.778752E-06   0.423211E-04   0.368313E+00   0.482680E+01
   0.169000E+04   0.735826E-06   0.423805E-04   0.368291E+00   0.482680E+01
   0.170000E+04   0.708489E-06   0.424405E-04   0.368261E+00   0.482680E+01
   0.171000E+04   0.695574E-06   0.425009E-04   0.368269E+00   0.482680E+01
   0.172000E+04   0.696195E-06   0.425615E-04   0.368290E+00   0.482680E+01
   0.173000E+04   0.710225E-06   0.426223E-04   0.368307E+00   0.482680E+01
   0.174000E+04   0.739252E-06   0.426838E-04   0.368286E+00   0.482680E+01
   0.175000E+04   0.784177E-06   0.427460E-04   0.368256E+00   0.482680E+01
   0.176000E+04   0.843708E-06   0.428087E-04   0.368263E+00   0.482680E+01
   0.177000E+04   0.916816E-06   0.428717E-04   0.368285E+00   0.482680E+01
   0.178000E+04   0.100333E-05   0.429351E-04   0.368302E+00   0.482680E+01
   0.179000E+04   0.110477E-05   0.429993E-04   0.368280E+00   0.482680E+01
   0.180000E+04   0.122198E-05   0.430644E-04   0.368250E+00   0.482680E+01
   0.181000E+04   0.135356E-05   0.431301E-04   0.368257E+00   0.482680E+01
   0.182000E+04   0.149836E-05   0.431963E-04   0.368279E+00   0.482680E+01
   0.183000E+04   0.165611E-05   0.432629E-04   0.368297E+00   0.482680E+01
   0.184000E+04   0.182829E-05   0.433305E-04   0.368275E+00   0.482680E+01
   0.185000E+04   0.201569E-05   0.433991E-04   0.368245E+00   0.482680E+01
   0.186000E+04   0.221682E-05   0.434684E-04   0.368251E+00   0.482680E+01
   0.187000E+04   0.243042E-05   0.435383E-04   0.368273E+00   0.482680E+01
   0.188000E+04   0.265615E-05   0.436088E-04   0.368292E+00   0.482680E+01
   0.189000E+04   0.289542E-05   0.436803E-04   0.368270E+00   0.482680E+01
   0.190000E+04   0.314898E-05   0.437530E-04   0.368240E+00   0.482680E+01
   0.191000E+04   0.341525E-05   0.438265E-04   0.368245E+00   0.482680E+01
   0.192000E+04   0.369292E-05   0.439007E-04   0.368267E+00   0.482680E+01
   0.193000E+04   0.398152E-05   0.439754E-04   0.368286E+00   0.482680E+01
   0.194000E+04   0.428240E-05   0.440513E-04   0.368265E+00   0.482680E+01
   0.195000E+04   0.459627E-05   0.441284E-04   0.368235E+00   0.482680E+01
   0.196000E+04   0.492149E-05   0.442064E-04   0.368240E+00   0.482680E+01
   0.197000E+04   0.525669E-05   0.442851E-04   0.368261E+00   0.482680E+01
   0.198000E+04   0.560128E-05   0.443644E-04   0.368281E+00   0.482680E+01
   0.199000E+04   0.595657E-05   0.444448E-04   0.368261E+00   0.482680E+01
   0.200000E+04   0.632320E-05   0.445265E-04   0.368230E+00   0.482680E+01
   0.201000E+04   0.669953E-05   0.446091E-04   0.368234E+00   0.482680E+01
   0.202000E+04   0.708415E-05   0.446923E-04   0.368255E+00   0.482680E+01
   0.203000E+04   0.747639E-05   0.447761E-04   0.368276E+00   0.482680E+01
   0.204000E+04   0.787752E-05   0.448610E-04   0.368256E+00   0.482680E+01
   0.205000E+04   0.828816E-05   0.449471E-04   0.368225E+00   0.482680E+01
   0.206000E+04   0.870672E-05   0.450341E-04   0.368228E+00   0.482680E+01
   0.207000E+04   0.913184E-05   0.451217E-04   0.368248E+00   0.482680E+01
   0.208000E+04   0.956278E-05   0.452097E-04   0.368271E+00   0.482680E+01
   0.209000E+04   0.100009E-04   0.452987E-04   0.368252E+00   0.482680E+01
   0.210000E+04   0.104467E-04   0.453889E-04   0.368220E+00   0.482680E+01
   0.211000E+04   0.108988E-04   0.454798E-04   0.368222E+00   0.482680E+01
   0.212000E+04   0.113560E-04   0.455712E-04   0.368241E+00   0.482680E+01
   0.213000E+04   0.118175E-04   0.456630E-04   0.368266E+00   0.482680E+01
   0.214000E+04   0.122847E-04   0.457556E-04   0.368247E+00   0.482680E+01
   0.215000E+04   0.127582E-04   0.458493E-04   0.368215E+00   0.482680E+01
   0.216000E+04   0.132369E-04   0.459437E-04   0.368216E+00   0.482680E+01
   0.217000E+04   0.137194E-04   0.460384E-04   0.368235E+00   0.482680E+01
   0.218000E+04   0.142052E-04   0.461332E-04   0.368260E+00   0.482680E+01
   0.219000E+04   0.146956E-04   0.462289E-04   0.368243E+00   0.482680E+01
   0.220000E+04   0.151913E-04   0.463255E-04   0.368211E+00   0.482680E+01
   0.221000E+04   0.156913E-04   0.464226E-04   0.368210E+00   0.482680E+01
   0.222000E+04   0.161945E-04   0.465200E-04   0.368228E+00   0.482680E+01
   0.223000E+04   0.167001E-04   0.466174E-04   0.368255E+00   0.482680E+01
   0.224000E+04   0.172096E-04   0.467155E-04   0.368238E+00   0.482680E+01
   0.225000E+04   0.177238E-04   0.468144E-04   0.368206E+00   0.482680E+01
   0.226000E+04   0.182416E-04   0.469138E-04   0.368204E+00   0.482680E+01
   0.227000E+04   0.187622E-04   0.470133E-04   0.368221E+00   0.482680E+01
   0.228000E+04   0.192847E-04   0.471127E-04   0.368249E+00   0.482680E+01
   0.229000E+04   0.198106E-04   0.472126E-04   0.368234E+00   0.482680E+01
   0.230000E+04   0.203406E-04   0.473134E-04   0.368202E+00   0.482680E+01
   0.231000E+04   0.208739E-04   0.474145E-04   0.368198E+00   0.482680E+01
   0.232000E+04   0.214095E-04   0.475156E-04   0.368215E+00   0.482680E+01
   0.233000E+04   0.219468E-04   0.476165E-04   0.368244E+00   0.482680E+01
   0.234000E+04   0.224871E-04   0.477178E-04   0.368230E+00   0.482680E+01
   0.235000E+04   0.230310E-04   0.478199E-04   0.368199E+00   0.482680E+01
   0.236000E+04   0.235779E-04   0.479222E-04   0.368192E+00   0.482680E+01
   0.237000E+04   0.241270E-04   0.480246E-04   0.368208E+00   0.482680E+01
   0.238000E+04   0.246774E-04   0.481265E-04   0.368238E+00   0.482680E+01
   0.239000E+04   0.252304E-04   0.482289E-04   0.368226E+00   0.482680E+01
   0.240000E+04   0.257866E-04   0.483318E-04   0.368195E+00   0.482680E+01
   0.241000E+04   0.263456E-04   0.484350E-04   0.368187E+00   0.482680E+01
   0.242000E+04   0.269065E-04   0.485840E-04   0.368202E+00   0.482680E+01
   0.243000E+04   0.274685E-04   0.487396E-04   0.368232E+00   0.482680E+01
   0.244000E+04   0.280327E-04   0.488957E-04   0.368222E+00   0.482680E+01
   0.245000E+04   0.285998E-04   0.490526E-04   0.368192E+00   0.482680E+01
   0.246000E+04   0.291694E-04   0.492101E-04   0.368181E+00   0.482680E+01
   0.247000E+04   0.297405E-04   0.493676E-04   0.368196E+00   0.482680E+01
   0.248000E+04   0.303126E-04   0.495248E-04   0.368227E+00   0.482680E+01
   0.249000E+04   0.308864E-04   0.496823E-04   0.368218E+00   0.482680E+01
   0.250000E+04   0.314628E-04   0.498405E-04   0.368188E+00   0.482680E+01
   0.251000E+04   0.320412E-04   0.499992E-04   0.368176E+00   0.482680E+01
   0.252000E+04   0.326210E-04   0.501578E-04   0.368191E+00   0.482680E+01
   0.253000E+04   0.332013E-04   0.503160E-04   0.368221E+00   0.482680E+01
   0.254000E+04   0.337831E-04   0.504743E-04   0.368215E+00   0.482680E+01
   0.255000E+04   0.343670E-04   0.506332E-04   0.368185E+00   0.482680E+01
   0.256000E+04   0.349526E-04   0.507925E-04   0.368171E+00   0.482680E+01
   0.257000E+04   0.355391E-04   0.509517E-04   0.368185E+00   0.482680E+01
   0.258000E+04   0.361259E-04   0.511103E-04   0.368216E+00   0.482680E+01
   0.259000E+04   0.367137E-04   0.512690E-04   0.368211E+00   0.482680E+01
   0.260000E+04   0.373031E-04   0.514281E-04   0.368182E+00   0.482680E+01
   0.261000E+04   0.378939E-04   0.515876E-04   0.368166E+00   0.482680E+01
   0.262000E+04   0.384852E-04   0.517469E-04   0.368180E+00   0.482680E+01
   0.263000E+04   0.390764E-04   0.519056E-04   0.368211E+00   0.482680E+01
   0.264000E+04   0.396683E-04   0.520643E-04   0.368208E+00   0.482680E+01
   0.265000E+04   0.402613E-04   0.522233E-04   0.368179E+00   0.482680E+01
   0.266000E+04   0.408551E-04   0.523827E-04   0.368161E+00   0.482680E+01
   0.267000E+04   0.414491E-04   0.525419E-04   0.368175E+00   0.482680E+01
   0.268000E+04   0.420427E-04   0.527003E-04   0.368205E+00   0.482680E+01
   0.269000E+04   0.426365E-04   0.528587E-04   0.368204E+00   0.482680E+01
   0.270000E+04   0.432308E-04   0.530173E-04   0.368176E+00   0.482680E+01
   0.271000E+04   0.438257E-04   0.531763E-04   0.368156E+00   0.482680E+01
   0.272000E+04   0.444202E-04   0.533350E-04   0.368170E+00   0.482680E+01
   0.273000E+04   0.450140E-04   0.534930E-04   0.368200E+00   0.482680E+01
   0.274000E+04   0.456076E-04   0.536508E-04   0.368201E+00   0.482680E+01
   0.275000E+04   0.462013E-04   0.538088E-04   0.368173E+00   0.482680E+01
   0.276000E+04   0.467951E-04   0.539671E-04   0.368152E+00   0.482680E+01
   0.277000E+04   0.473882E-04   0.554075E-04   0.368165E+00   0.482680E+01
   0.278000E+04   0.479802E-04   0.570272E-04   0.368195E+00   0.482680E+01
   0.279000E+04   0.485716E-04   0.586455E-04   0.368197E+00   0.482680E+01
   0.280000E+04   0.491628E-04   0.602617E-04   0.368169E+00   0.482680E+01
   0.281000E+04   0.497535E-04   0.618748E-04   0.368148E+00   0.482680E+01
   0.282000E+04   0.503432E-04   0.634849E-04   0.368160E+00   0.482680E+01
   0.283000E+04   0.509316E-04   0.650929E-04   0.368191E+00   0.482680E+01
   0.284000E+04   0.515190E-04   0.666985E-04   0.368194E+00   0.482680E+01
   0.285000E+04   0.521057E-04   0.683012E-04   0.368166E+00   0.482680E+01
   0.286000E+04   0.526917E-04   0.698998E-04   0.368144E+00   0.482680E+01
   0.287000E+04   0.532763E-04   0.714943E-04   0.368155E+00   0.482680E+01
   0.288000E+04   0.538593E-04   0.730861E-04   0.368186E+00   0.482680E+01
   0.289000E+04   0.544411E-04   0.746749E-04   0.368191E+00   0.482680E+01
   0.290000E+04   0.550218E-04   0.762599E-04   0.368164E+00   0.482680E+01
   0.291000E+04   0.556015E-04   0.778399E-04   0.368140E+00   0.482680E+01
   0.292000E+04   0.561795E-04   0.794151E-04   0.368150E+00   0.482680E+01
   0.293000E+04   0.567557E-04   0.809871E-04   0.368180E+00   0.482680E+01
   0.294000E+04   0.573304E-04   0.825553E-04   0.368187E+00   0.482680E+01
   0.295000E+04   0.579038E-04   0.841193E-04   0.368161E+00   0.482680E+01
   0.296000E+04   0.584759E-04   0.856777E-04   0.368136E+00   0.482680E+01
   0.297000E+04   0.590460E-04   0.872306E-04   0.368145E+00   0.482680E+01
   0.298000E+04   0.596142E-04   0.887798E-04   0.368175E+00   0.482680E+01
   0.299000E+04   0.601807E-04   0.903251E-04   0.368184E+00   0.482680E+01
   0.300000E+04   0.607458E-04   0.918657E-04   0.368159E+00   0.482680E+01
   0.301000E+04   0.613092E-04   0.934001E-04   0.368132E+00   0.482680E+01
   0.302000E+04   0.618706E-04   0.949287E-04   0.368141E+00   0.482680E+01
   0.303000E+04   0.624300E-04   0.964533E-04   0.368170E+00   0.482680E+01
   0.304000E+04   0.629875E-04   0.979738E-04   0.368181E+00   0.482680E+01
   0.305000E+04   0.635436E-04   0.994895E-04   0.368156E+00   0.482680E+01
   0.306000E+04   0.640978E-04   0.100999E-03   0.368129E+00   0.482680E+01
   0.307000E+04   0.646498E-04   0.102502E-03   0.368136E+00   0.482680E+01
   0.308000E+04   0.651999E-04   0.104001E-03   0.368164E+00   0.482680E+01
   0.309000E+04   0.657481E-04   0.105496E-03   0.368178E+00   0.482680E+01
   0.310000E+04   0.662947E-04   0.106986E-03   0.368155E+00   0.482680E+01
   0.311000E+04   0.668395E-04   0.108470E-03   0.368126E+00   0.482680E+01
   0.312000E+04   0.673820E-04   0.109947E-03   0.368131E+00   0.482680E+01
   0.313000E+04   0.679226E-04   0.111420E-03   0.368158E+00   0.482680E+01
   0.314000E+04   0.684615E-04   0.112890E-03   0.368175E+00   0.482680E+01
   0.315000E+04   0.689987E-04   0.114355E-03   0.368153E+00   0.482680E+01
   0.316000E+04   0.695342E-04   0.115814E-03   0.368123E+00   0.482680E+01
   0.317000E+04   0.700674E-04   0.117266E-03   0.368126E+00   0.482680E+01
   0.318000E+04   0.705988E-04   0.118715E-03   0.368152E+00   0.482680E+01
   0.319000E+04   0.711286E-04   0.120160E-03   0.368171E+00   0.482680E+01
   0.320000E+04   0.716569E-04   0.121601E-03   0.368151E+00   0.482680E+01
   0.321000E+04   0.721833E-04   0.123036E-03   0.368120E+00   0.482680E+01
   0.322000E+04   0.727077E-04   0.124465E-03   0.368122E+00   0.482680E+01
   0.323000E+04   0.732303E-04   0.125890E-03   0.368146E+00   0.482680E+01
   0.324000E+04   0.737514E-04   0.127312E-03   0.368168E+00   0.482680E+01
   0.325000E+04   0.742712E-04   0.128730E-03   0.368149E+00   0.482680E+01
   0.326000E+04   0.747891E-04   0.130142E-03   0.368117E+00   0.482680E+01
   0.327000E+04   0.753051E-04   0.131549E-03   0.368117E+00   0.482680E+01
   0.328000E+04   0.758194E-04   0.132951E-03   0.368140E+00   0.482680E+01
   0.329000E+04   0.763323E-04   0.134352E-03   0.368165E+00   0.482680E+01
   0.330000E+04   0.768440E-04   0.135749E-03   0.368147E+00   0.482680E+01
   0.331000E+04   0.773538E-04   0.137140E-03   0.368115E+00   0.482680E+01
   0.332000E+04   0.778618E-04   0.138525E-03   0.368113E+00   0.482680E+01
   0.333000E+04   0.783682E-04   0.139906E-03   0.368134E+00   0.482680E+01
   0.334000E+04   0.788733E-04   0.141286E-03   0.368162E+00   0.482680E+01
   0.335000E+04   0.793772E-04   0.142663E-03   0.368145E+00   0.482680E+01
   0.336000E+04   0.798794E-04   0.144033E-03   0.368113E+00   0.482680E+01
   0.337000E+04   0.803797E-04   0.145398E-03   0.368109E+00   0.482680E+01
   0.338000E+04   0.808785E-04   0.146760E-03   0.368129E+00   0.482680E+01
   0.339000E+04   0.813760E-04   0.148120E-03   0.368158E+00   0.482680E+01
   0.340000E+04   0.818725E-04   0.149477E-03   0.368143E+00   0.482680E+01
   0.341000E+04   0.823671E-04   0.150828E-03   0.368111E+00   0.482680E+01
   0.342000E+04   0.828600E-04   0.152174E-03   0.368105E+00   0.482680E+01
   0.343000E+04   0.833512E-04   0.153516E-03   0.368123E+00   0.482680E+01
   0.344000E+04   0.838414E-04   0.154856E-03   0.368154E+00   0.482680E+01
   0.345000E+04   0.843305E-04   0.156194E-03   0.368141E+00   0.482680E+01
   0.346000E+04   0.848177E-04   0.157527E-03   0.368109E+00   0.482680E+01
   0.347000E+04   0.853032E-04   0.158853E-03   0.368101E+00   0.482680E+01
   0.348000E+04   0.857871E-04   0.160177E-03   0.368118E+00   0.482680E+01
   0.349000E+04   0.862700E-04   0.161499E-03   0.368151E+00   0.482680E+01
   0.350000E+04   0.867517E-04   0.162818E-03   0.368139E+00   0.482680E+01
   0.351000E+04   0.872317E-04   0.164132E-03   0.368108E+00   0.482680E+01
   0.352000E+04   0.877098E-04   0.165441E-03   0.368097E+00   0.482680E+01
   0.353000E+04   0.881864E-04   0.166746E-03   0.368114E+00   0.482680E+01
   0.354000E+04   0.886620E-04   0.168050E-03   0.368146E+00   0.482680E+01
   0.355000E+04   0.891365E-04   0.169352E-03   0.368136E+00   0.482680E+01
   0.356000E+04   0.896093E-04   0.170649E-03   0.368106E+00   0.482680E+01
   0.357000E+04   0.900803E-04   0.171940E-03   0.368094E+00   0.482680E+01
   0.358000E+04   0.905496E-04   0.173228E-03   0.368109E+00   0.482680E+01
   0.359000E+04   0.910181E-04   0.174515E-03   0.368142E+00   0.482680E+01
   0.360000E+04   0.914855E-04   0.175800E-03   0.368134E+00   0.482680E+01
   0.361000E+04   0.919512E-04   0.177080E-03   0.368104E+00   0.482680E+01
   0.362000E+04   0.924151E-04   0.178355E-03   0.368090E+00   0.482680E+01
   0.363000E+04   0.928773E-04   0.179626E-03   0.368105E+00   0.482680E+01
   0.364000E+04   0.933387E-04   0.180897E-03   0.368139E+00   0.482680E+01
   0.365000E+04   0.937991E-04   0.182166E-03   0.368132E+00   0.482680E+01
   0.366000E+04   0.942578E-04   0.183430E-03   0.368102E+00   0.482680E+01
   0.367000E+04   0.947146E-04   0.184689E-03   0.368086E+00   0.482680E+01
   0.368000E+04   0.951699E-04   0.185945E-03   0.368102E+00   0.482680E+01
   0.369000E+04   0.956243E-04   0.187200E-03   0.368135E+00   0.482680E+01
   0.370000E+04   0.960777E-04   0.188453E-03   0.368129E+00   0.482680E+01
   0.371000E+04   0.965295E-04   0.189702E-03   0.368100E+00   0.482680E+01
   0.372000E+04   0.969794E-04   0.190945E-03   0.368083E+00   0.482680E+01
   0.373000E+04   0.974276E-04   0.192185E-03   0.368098E+00   0.482680E+01
   0.374000E+04   0.978752E-04   0.193425E-03   0.368131E+00   0.482680E+01
   0.375000E+04   0.983217E-04   0.194663E-03   0.368127E+00   0.482680E+01
   0.376000E+04   0.987666E-04   0.195897E-03   0.368099E+00   0.482680E+01
   0.377000E+04   0.992096E-04   0.197124E-03   0.368080E+00   0.482680E+01
   0.378000E+04   0.996509E-04   0.198349E-03   0.368094E+00   0.482680E+01
   0.379000E+04   0.100092E-03   0.199573E-03   0.368127E+00   0.482680E+01
   0.380000E+04   0.100531E-03   0.200796E-03   0.368125E+00   0.482680E+01
   0.381000E+04   0.100969E-03   0.202015E-03   0.368097E+00   0.482680E+01
   0.382000E+04   0.101406E-03   0.203228E-03   0.368076E+00   0.482680E+01
   0.383000E+04   0.101840E-03   0.204437E-03   0.368091E+00   0.482680E+01
   0.384000E+04   0.102274E-03   0.205647E-03   0.368123E+00   0.482680E+01
   0.385000E+04   0.102707E-03   0.206855E-03   0.368123E+00   0.482680E+01
   0.386000E+04   0.103138E-03   0.208059E-03   0.368095E+00   0.482680E+01
   0.387000E+04   0.103568E-03   0.209257E-03   0.368073E+00   0.482680E+01
   0.388000E+04   0.103996E-03   0.210452E-03   0.368087E+00   0.482680E+01
   0.389000E+04   0.104423E-03   0.211646E-03   0.368119E+00   0.482680E+01
   0.390000E+04   0.104849E-03   0.212840E-03   0.368121E+00   0.482680E+01
   0.391000E+04   0.105274E-03   0.214030E-03   0.368093E+00   0.482680E+01
   0.392000E+04   0.105697E-03   0.215213E-03   0.368070E+00   0.482680E+01
   0.393000E+04   0.106118E-03   0.216393E-03   0.368083E+00   0.482680E+01