title="breakthrough data set at     5 wells"
variables="time(days)","cavg","cpk","upk","zswi"
zone i=     1295
   0.100000E+02   0.120618E-09   0.260517E-09   0.457918E+00   0.485901E+01
   0.200000E+02   0.321205E-09   0.697753E-09   0.381841E+00   0.483831E+01
   0.300000E+02   0.698783E-09   0.150920E-08   0.381485E+00   0.483831E+01
   0.400000E+02   0.134965E-08   0.289162E-08   0.381455E+00   0.483831E+01
   0.500000E+02   0.240108E-08   0.510088E-08   0.381449E+00   0.483831E+01
   0.600000E+02   0.401518E-08   0.845724E-08   0.381460E+00   0.483831E+01
   0.700000E+02   0.639273E-08   0.133503E-07   0.381481E+00   0.483831E+01
   0.800000E+02   0.977450E-08   0.202387E-07   0.381510E+00   0.483831E+01
   0.900000E+02   0.144423E-07   0.296489E-07   0.381541E+00   0.483831E+01
   0.100000E+03   0.207177E-07   0.421701E-07   0.381574E+00   0.483831E+01
   0.110000E+03   0.289599E-07   0.584465E-07   0.381607E+00   0.483831E+01
   0.120000E+03   0.395616E-07   0.791671E-07   0.381640E+00   0.483831E+01
   0.130000E+03   0.529286E-07   0.105020E-06   0.381636E+00   0.483831E+01
   0.140000E+03   0.695204E-07   0.136782E-06   0.381672E+00   0.483831E+01
   0.150000E+03   0.897945E-07   0.175196E-06   0.381704E+00   0.483831E+01
   0.160000E+03   0.114216E-06   0.220993E-06   0.381735E+00   0.483831E+01
   0.170000E+03   0.143270E-06   0.274928E-06   0.381791E+00   0.483831E+01
   0.180000E+03   0.177388E-06   0.337609E-06   0.381813E+00   0.483831E+01
   0.190000E+03   0.217016E-06   0.409668E-06   0.381834E+00   0.483831E+01
   0.200000E+03   0.262553E-06   0.491619E-06   0.381832E+00   0.483831E+01
   0.210000E+03   0.314445E-06   0.584078E-06   0.381854E+00   0.483831E+01
   0.220000E+03   0.373064E-06   0.687499E-06   0.381874E+00   0.483831E+01
   0.230000E+03   0.438758E-06   0.802282E-06   0.381893E+00   0.483831E+01
   0.240000E+03   0.511838E-06   0.928763E-06   0.381909E+00   0.483831E+01
   0.250000E+03   0.592584E-06   0.106722E-05   0.381924E+00   0.483831E+01
   0.260000E+03   0.681237E-06   0.121785E-05   0.381936E+00   0.483831E+01
   0.270000E+03   0.778000E-06   0.138082E-05   0.381947E+00   0.483831E+01
   0.280000E+03   0.883041E-06   0.155621E-05   0.381957E+00   0.483831E+01
   0.290000E+03   0.996488E-06   0.174406E-05   0.381965E+00   0.483831E+01
   0.300000E+03   0.111844E-05   0.194436E-05   0.381972E+00   0.483831E+01
   0.310000E+03   0.124894E-05   0.215705E-05   0.381978E+00   0.483831E+01
   0.320000E+03   0.138804E-05   0.238204E-05   0.381982E+00   0.483831E+01
   0.330000E+03   0.153572E-05   0.261917E-05   0.381986E+00   0.483831E+01
   0.340000E+03   0.169195E-05   0.286829E-05   0.381989E+00   0.483831E+01
   0.350000E+03   0.185669E-05   0.312917E-05   0.381991E+00   0.483831E+01
   0.360000E+03   0.202985E-05   0.340158E-05   0.381992E+00   0.483831E+01
   0.370000E+03   0.221133E-05   0.368526E-05   0.381993E+00   0.483831E+01
   0.380000E+03   0.240104E-05   0.397992E-05   0.381994E+00   0.483831E+01
   0.390000E+03   0.259882E-05   0.428526E-05   0.381993E+00   0.483831E+01
   0.400000E+03   0.280454E-05   0.460094E-05   0.381992E+00   0.483831E+01
   0.410000E+03   0.301804E-05   0.492661E-05   0.381991E+00   0.483831E+01
   0.420000E+03   0.323914E-05   0.526193E-05   0.381990E+00   0.483831E+01
   0.430000E+03   0.346767E-05   0.560652E-05   0.381988E+00   0.483831E+01
   0.440000E+03   0.370342E-05   0.595999E-05   0.381985E+00   0.483831E+01
   0.450000E+03   0.394618E-05   0.632197E-05   0.381983E+00   0.483831E+01
   0.460000E+03   0.419575E-05   0.669204E-05   0.381980E+00   0.483831E+01
   0.470000E+03   0.445189E-05   0.706981E-05   0.381977E+00   0.483831E+01
   0.480000E+03   0.471437E-05   0.745487E-05   0.381974E+00   0.483831E+01
   0.490000E+03   0.498295E-05   0.784681E-05   0.381970E+00   0.483831E+01
   0.500000E+03   0.525738E-05   0.824523E-05   0.381966E+00   0.483831E+01
   0.510000E+03   0.553742E-05   0.864971E-05   0.381962E+00   0.483831E+01
   0.520000E+03   0.582280E-05   0.905985E-05   0.381958E+00   0.483831E+01
   0.530000E+03   0.611328E-05   0.947524E-05   0.381954E+00   0.483831E+01
   0.540000E+03   0.640861E-05   0.989548E-05   0.381950E+00   0.483831E+01
   0.550000E+03   0.670853E-05   0.103202E-04   0.381946E+00   0.483831E+01
   0.560000E+03   0.701279E-05   0.107489E-04   0.381941E+00   0.483831E+01
   0.570000E+03   0.732116E-05   0.111813E-04   0.381937E+00   0.483831E+01
   0.580000E+03   0.763337E-05   0.116170E-04   0.381932E+00   0.483831E+01
   0.590000E+03   0.794918E-05   0.120555E-04   0.381928E+00   0.483831E+01
   0.600000E+03   0.826836E-05   0.124966E-04   0.381923E+00   0.483831E+01
   0.610000E+03   0.859066E-05   0.129399E-04   0.381919E+00   0.483831E+01
   0.620000E+03   0.891584E-05   0.133849E-04   0.381914E+00   0.483831E+01
   0.630000E+03   0.924365E-05   0.138313E-04   0.381909E+00   0.483831E+01
   0.640000E+03   0.957386E-05   0.142789E-04   0.381905E+00   0.483831E+01
   0.650000E+03   0.990622E-05   0.147272E-04   0.381900E+00   0.483831E+01
   0.660000E+03   0.102405E-04   0.151760E-04   0.381895E+00   0.483831E+01
   0.670000E+03   0.105765E-04   0.156248E-04   0.381890E+00   0.483831E+01
   0.680000E+03   0.109139E-04   0.160735E-04   0.381886E+00   0.483831E+01
   0.690000E+03   0.112526E-04   0.165216E-04   0.381881E+00   0.483831E+01
   0.700000E+03   0.115924E-04   0.169690E-04   0.381876E+00   0.483831E+01
   0.710000E+03   0.119329E-04   0.174153E-04   0.381872E+00   0.483831E+01
   0.720000E+03   0.122741E-04   0.178603E-04   0.381867E+00   0.483831E+01
   0.730000E+03   0.126157E-04   0.183037E-04   0.381862E+00   0.483831E+01
   0.740000E+03   0.129576E-04   0.187452E-04   0.381858E+00   0.483831E+01
   0.750000E+03   0.132996E-04   0.191846E-04   0.381853E+00   0.483831E+01
   0.760000E+03   0.136415E-04   0.196217E-04   0.381848E+00   0.483831E+01
   0.770000E+03   0.139832E-04   0.200563E-04   0.381844E+00   0.483831E+01
   0.780000E+03   0.143246E-04   0.204881E-04   0.381839E+00   0.483831E+01
   0.790000E+03   0.146654E-04   0.209170E-04   0.381834E+00   0.483831E+01
   0.800000E+03   0.150056E-04   0.213427E-04   0.381830E+00   0.483831E+01
   0.810000E+03   0.153449E-04   0.217651E-04   0.381825E+00   0.483831E+01
   0.820000E+03   0.156834E-04   0.221840E-04   0.381821E+00   0.483831E+01
   0.830000E+03   0.160207E-04   0.225992E-04   0.381816E+00   0.483831E+01
   0.840000E+03   0.163568E-04   0.230106E-04   0.381812E+00   0.483831E+01
   0.850000E+03   0.166916E-04   0.234181E-04   0.381807E+00   0.483831E+01
   0.860000E+03   0.170249E-04   0.238215E-04   0.381803E+00   0.483831E+01
   0.870000E+03   0.173565E-04   0.242206E-04   0.381798E+00   0.483831E+01
   0.880000E+03   0.176863E-04   0.246154E-04   0.381794E+00   0.483831E+01
   0.890000E+03   0.180143E-04   0.250058E-04   0.381789E+00   0.483831E+01
   0.900000E+03   0.183402E-04   0.253917E-04   0.381785E+00   0.483831E+01
   0.910000E+03   0.186639E-04   0.257729E-04   0.381781E+00   0.483831E+01
   0.920000E+03   0.189853E-04   0.261494E-04   0.381776E+00   0.483831E+01
   0.930000E+03   0.193042E-04   0.265212E-04   0.381772E+00   0.483831E+01
   0.940000E+03   0.196207E-04   0.268881E-04   0.381768E+00   0.483831E+01
   0.950000E+03   0.199346E-04   0.272501E-04   0.381764E+00   0.483831E+01
   0.960000E+03   0.202459E-04   0.276071E-04   0.381760E+00   0.483831E+01
   0.970000E+03   0.205544E-04   0.279592E-04   0.381756E+00   0.483831E+01
   0.980000E+03   0.208602E-04   0.283062E-04   0.381752E+00   0.483831E+01
   0.990000E+03   0.211633E-04   0.286481E-04   0.381748E+00   0.483831E+01
   0.100000E+04   0.214635E-04   0.289849E-04   0.381744E+00   0.483831E+01
   0.101000E+04   0.217609E-04   0.293166E-04   0.381740E+00   0.483831E+01
   0.102000E+04   0.220555E-04   0.296430E-04   0.381736E+00   0.483831E+01
   0.103000E+04   0.223471E-04   0.299643E-04   0.381733E+00   0.483831E+01
   0.104000E+04   0.226358E-04   0.302803E-04   0.381729E+00   0.483831E+01
   0.105000E+04   0.229214E-04   0.305911E-04   0.381725E+00   0.483831E+01
   0.106000E+04   0.232040E-04   0.308966E-04   0.381722E+00   0.483831E+01
   0.107000E+04   0.234834E-04   0.311968E-04   0.381718E+00   0.483831E+01
   0.108000E+04   0.237597E-04   0.314917E-04   0.381715E+00   0.483831E+01
   0.109000E+04   0.240326E-04   0.317813E-04   0.381711E+00   0.483831E+01
   0.110000E+04   0.243023E-04   0.320656E-04   0.381708E+00   0.483831E+01
   0.111000E+04   0.245687E-04   0.323445E-04   0.381704E+00   0.483831E+01
   0.112000E+04   0.248318E-04   0.326182E-04   0.381701E+00   0.483831E+01
   0.113000E+04   0.250918E-04   0.328864E-04   0.381698E+00   0.483831E+01
   0.114000E+04   0.253486E-04   0.331493E-04   0.381695E+00   0.483831E+01
   0.115000E+04   0.256024E-04   0.334069E-04   0.381691E+00   0.483831E+01
   0.116000E+04   0.258535E-04   0.336591E-04   0.381688E+00   0.483831E+01
   0.117000E+04   0.261021E-04   0.339060E-04   0.381685E+00   0.483831E+01
   0.118000E+04   0.263483E-04   0.341475E-04   0.381682E+00   0.483831E+01
   0.119000E+04   0.265925E-04   0.343837E-04   0.381679E+00   0.483831E+01
   0.120000E+04   0.268350E-04   0.346145E-04   0.381676E+00   0.483831E+01
   0.121000E+04   0.270761E-04   0.348399E-04   0.381673E+00   0.483831E+01
   0.122000E+04   0.273161E-04   0.350599E-04   0.381671E+00   0.483831E+01
   0.123000E+04   0.275552E-04   0.352746E-04   0.381668E+00   0.483831E+01
   0.124000E+04   0.277937E-04   0.354839E-04   0.381665E+00   0.483831E+01
   0.125000E+04   0.280320E-04   0.356879E-04   0.381662E+00   0.483831E+01
   0.126000E+04   0.282701E-04   0.358866E-04   0.381660E+00   0.483831E+01
   0.127000E+04   0.285082E-04   0.360800E-04   0.381658E+00   0.483831E+01
   0.128000E+04   0.287466E-04   0.362680E-04   0.381655E+00   0.483831E+01
   0.129000E+04   0.289853E-04   0.364509E-04   0.381652E+00   0.483831E+01
   0.130000E+04   0.292244E-04   0.366286E-04   0.381650E+00   0.483831E+01
   0.131000E+04   0.294638E-04   0.368011E-04   0.381648E+00   0.483831E+01
   0.132000E+04   0.297036E-04   0.369686E-04   0.381646E+00   0.483831E+01
   0.133000E+04   0.299436E-04   0.371310E-04   0.381644E+00   0.483831E+01
   0.134000E+04   0.301839E-04   0.372885E-04   0.381641E+00   0.483831E+01
   0.135000E+04   0.304242E-04   0.374412E-04   0.381639E+00   0.483831E+01
   0.136000E+04   0.306645E-04   0.375890E-04   0.381638E+00   0.483831E+01
   0.137000E+04   0.309045E-04   0.377322E-04   0.381636E+00   0.483831E+01
   0.138000E+04   0.311439E-04   0.378708E-04   0.381633E+00   0.483831E+01
   0.139000E+04   0.313827E-04   0.380049E-04   0.381631E+00   0.483831E+01
   0.140000E+04   0.316205E-04   0.381346E-04   0.381630E+00   0.483831E+01
   0.141000E+04   0.318571E-04   0.382599E-04   0.381629E+00   0.483831E+01
   0.142000E+04   0.320922E-04   0.383811E-04   0.381627E+00   0.483831E+01
   0.143000E+04   0.323256E-04   0.384981E-04   0.381624E+00   0.483831E+01
   0.144000E+04   0.325570E-04   0.386111E-04   0.381622E+00   0.483831E+01
   0.145000E+04   0.327862E-04   0.387202E-04   0.381621E+00   0.483831E+01
   0.146000E+04   0.330128E-04   0.392366E-04   0.381620E+00   0.483831E+01
   0.147000E+04   0.332368E-04   0.399378E-04   0.381618E+00   0.483831E+01
   0.148000E+04   0.334578E-04   0.406374E-04   0.381615E+00   0.483831E+01
   0.149000E+04   0.336757E-04   0.413343E-04   0.381614E+00   0.483831E+01
   0.150000E+04   0.338904E-04   0.420277E-04   0.381614E+00   0.483831E+01
   0.151000E+04   0.341017E-04   0.427166E-04   0.381613E+00   0.483831E+01
   0.152000E+04   0.343094E-04   0.434005E-04   0.381610E+00   0.483831E+01
   0.153000E+04   0.345137E-04   0.440786E-04   0.381608E+00   0.483831E+01
   0.154000E+04   0.347142E-04   0.447504E-04   0.381607E+00   0.483831E+01
   0.155000E+04   0.349112E-04   0.454156E-04   0.381607E+00   0.483831E+01
   0.156000E+04   0.351044E-04   0.460739E-04   0.381606E+00   0.483831E+01
   0.157000E+04   0.352941E-04   0.467253E-04   0.381603E+00   0.483831E+01
   0.158000E+04   0.354802E-04   0.473699E-04   0.381601E+00   0.483831E+01
   0.159000E+04   0.356630E-04   0.480081E-04   0.381601E+00   0.483831E+01
   0.160000E+04   0.358426E-04   0.486404E-04   0.381600E+00   0.483831E+01
   0.161000E+04   0.360192E-04   0.492678E-04   0.381599E+00   0.483831E+01
   0.162000E+04   0.361932E-04   0.498912E-04   0.381597E+00   0.483831E+01
   0.163000E+04   0.363649E-04   0.505117E-04   0.381595E+00   0.483831E+01
   0.164000E+04   0.365345E-04   0.511307E-04   0.381595E+00   0.483831E+01
   0.165000E+04   0.367026E-04   0.517496E-04   0.381595E+00   0.483831E+01
   0.166000E+04   0.368695E-04   0.523699E-04   0.381593E+00   0.483831E+01
   0.167000E+04   0.370356E-04   0.529932E-04   0.381591E+00   0.483831E+01
   0.168000E+04   0.372014E-04   0.536211E-04   0.381590E+00   0.483831E+01
   0.169000E+04   0.373675E-04   0.542552E-04   0.381589E+00   0.483831E+01
   0.170000E+04   0.375342E-04   0.548975E-04   0.381589E+00   0.483831E+01
   0.171000E+04   0.377021E-04   0.555498E-04   0.381587E+00   0.483831E+01
   0.172000E+04   0.378718E-04   0.562140E-04   0.381585E+00   0.483831E+01
   0.173000E+04   0.380439E-04   0.568920E-04   0.381584E+00   0.483831E+01
   0.174000E+04   0.382188E-04   0.575857E-04   0.381584E+00   0.483831E+01
   0.175000E+04   0.383972E-04   0.582971E-04   0.381584E+00   0.483831E+01
   0.176000E+04   0.385796E-04   0.590281E-04   0.381582E+00   0.483831E+01
   0.177000E+04   0.387665E-04   0.597806E-04   0.381580E+00   0.483831E+01
   0.178000E+04   0.389585E-04   0.605562E-04   0.381579E+00   0.483831E+01
   0.179000E+04   0.391559E-04   0.613565E-04   0.381579E+00   0.483831E+01
   0.180000E+04   0.393593E-04   0.621832E-04   0.381579E+00   0.483831E+01
   0.181000E+04   0.395690E-04   0.630376E-04   0.381577E+00   0.483831E+01
   0.182000E+04   0.397854E-04   0.639207E-04   0.381575E+00   0.483831E+01
   0.183000E+04   0.400087E-04   0.648334E-04   0.381575E+00   0.483831E+01
   0.184000E+04   0.402393E-04   0.657766E-04   0.381575E+00   0.483831E+01
   0.185000E+04   0.404772E-04   0.667505E-04   0.381574E+00   0.483831E+01
   0.186000E+04   0.407226E-04   0.677554E-04   0.381572E+00   0.483831E+01
   0.187000E+04   0.409756E-04   0.687913E-04   0.381571E+00   0.483831E+01
   0.188000E+04   0.412361E-04   0.698578E-04   0.381571E+00   0.483831E+01
   0.189000E+04   0.415040E-04   0.709545E-04   0.381571E+00   0.483831E+01
   0.190000E+04   0.417793E-04   0.720806E-04   0.381569E+00   0.483831E+01
   0.191000E+04   0.420619E-04   0.732353E-04   0.381567E+00   0.483831E+01
   0.192000E+04   0.423515E-04   0.744176E-04   0.381567E+00   0.483831E+01
   0.193000E+04   0.426478E-04   0.756264E-04   0.381567E+00   0.483831E+01
   0.194000E+04   0.429508E-04   0.768603E-04   0.381567E+00   0.483831E+01
   0.195000E+04   0.432599E-04   0.781183E-04   0.381565E+00   0.483831E+01
   0.196000E+04   0.435751E-04   0.793988E-04   0.381564E+00   0.483831E+01
   0.197000E+04   0.438960E-04   0.807006E-04   0.381563E+00   0.483831E+01
   0.198000E+04   0.442222E-04   0.820223E-04   0.381563E+00   0.483831E+01
   0.199000E+04   0.445534E-04   0.833625E-04   0.381563E+00   0.483831E+01
   0.200000E+04   0.448894E-04   0.847199E-04   0.381562E+00   0.483831E+01
   0.201000E+04   0.452297E-04   0.860932E-04   0.381560E+00   0.483831E+01
   0.202000E+04   0.455742E-04   0.874811E-04   0.381560E+00   0.483831E+01
   0.203000E+04   0.459224E-04   0.888823E-04   0.381560E+00   0.483831E+01
   0.204000E+04   0.462741E-04   0.902957E-04   0.381560E+00   0.483831E+01
   0.205000E+04   0.466290E-04   0.917200E-04   0.381558E+00   0.483831E+01
   0.206000E+04   0.469868E-04   0.931543E-04   0.381557E+00   0.483831E+01
   0.207000E+04   0.473472E-04   0.945974E-04   0.381557E+00   0.483831E+01
   0.208000E+04   0.477100E-04   0.960484E-04   0.381557E+00   0.483831E+01
   0.209000E+04   0.480750E-04   0.975063E-04   0.381557E+00   0.483831E+01
   0.210000E+04   0.484419E-04   0.989703E-04   0.381555E+00   0.483831E+01
   0.211000E+04   0.488104E-04   0.100439E-03   0.381554E+00   0.483831E+01
   0.212000E+04   0.491805E-04   0.101913E-03   0.381555E+00   0.483831E+01
   0.213000E+04   0.495519E-04   0.103390E-03   0.381555E+00   0.483831E+01
   0.214000E+04   0.499244E-04   0.104870E-03   0.381554E+00   0.483831E+01
   0.215000E+04   0.502978E-04   0.106353E-03   0.381553E+00   0.483831E+01
   0.216000E+04   0.506721E-04   0.107837E-03   0.381552E+00   0.483831E+01
   0.217000E+04   0.510470E-04   0.109322E-03   0.381552E+00   0.483831E+01
   0.218000E+04   0.514224E-04   0.110808E-03   0.381553E+00   0.483831E+01
   0.219000E+04   0.517983E-04   0.112294E-03   0.381552E+00   0.483831E+01
   0.220000E+04   0.521745E-04   0.113780E-03   0.381550E+00   0.483831E+01
   0.221000E+04   0.525509E-04   0.115265E-03   0.381550E+00   0.483831E+01
   0.222000E+04   0.529274E-04   0.116749E-03   0.381550E+00   0.483831E+01
   0.223000E+04   0.533040E-04   0.118231E-03   0.381550E+00   0.483831E+01
   0.224000E+04   0.536805E-04   0.119712E-03   0.381549E+00   0.483831E+01
   0.225000E+04   0.540570E-04   0.121191E-03   0.381548E+00   0.483831E+01
   0.226000E+04   0.544333E-04   0.122667E-03   0.381548E+00   0.483831E+01
   0.227000E+04   0.548095E-04   0.124141E-03   0.381548E+00   0.483831E+01
   0.228000E+04   0.551854E-04   0.125612E-03   0.381548E+00   0.483831E+01
   0.229000E+04   0.555611E-04   0.127080E-03   0.381547E+00   0.483831E+01
   0.230000E+04   0.559367E-04   0.128546E-03   0.381546E+00   0.483831E+01
   0.231000E+04   0.563119E-04   0.130008E-03   0.381546E+00   0.483831E+01
   0.232000E+04   0.566870E-04   0.131467E-03   0.381547E+00   0.483831E+01
   0.233000E+04   0.570618E-04   0.132924E-03   0.381546E+00   0.483831E+01
   0.234000E+04   0.574365E-04   0.134377E-03   0.381545E+00   0.483831E+01
   0.235000E+04   0.578111E-04   0.135828E-03   0.381544E+00   0.483831E+01
   0.236000E+04   0.581855E-04   0.137275E-03   0.381544E+00   0.483831E+01
   0.237000E+04   0.585599E-04   0.138721E-03   0.381545E+00   0.483831E+01
   0.238000E+04   0.589343E-04   0.140163E-03   0.381544E+00   0.483831E+01
   0.239000E+04   0.593088E-04   0.141604E-03   0.381543E+00   0.483831E+01
   0.240000E+04   0.596834E-04   0.143043E-03   0.381542E+00   0.483831E+01
   0.241000E+04   0.600583E-04   0.144479E-03   0.381543E+00   0.483831E+01
   0.242000E+04   0.604335E-04   0.145915E-03   0.381543E+00   0.483831E+01
   0.243000E+04   0.608091E-04   0.147349E-03   0.381543E+00   0.483831E+01
   0.244000E+04   0.611852E-04   0.148782E-03   0.381541E+00   0.483831E+01
   0.245000E+04   0.615619E-04   0.150215E-03   0.381541E+00   0.483831E+01
   0.246000E+04   0.619393E-04   0.151648E-03   0.381541E+00   0.483831E+01
   0.247000E+04   0.623174E-04   0.153081E-03   0.381542E+00   0.483831E+01
   0.248000E+04   0.626963E-04   0.154514E-03   0.381541E+00   0.483831E+01
   0.249000E+04   0.630763E-04   0.155948E-03   0.381539E+00   0.483831E+01
   0.250000E+04   0.634572E-04   0.157382E-03   0.381539E+00   0.483831E+01
   0.251000E+04   0.638392E-04   0.158819E-03   0.381540E+00   0.483831E+01
   0.252000E+04   0.642223E-04   0.160256E-03   0.381540E+00   0.483831E+01
   0.253000E+04   0.646068E-04   0.161696E-03   0.381539E+00   0.483831E+01
   0.254000E+04   0.649925E-04   0.163137E-03   0.381538E+00   0.483831E+01
   0.255000E+04   0.653795E-04   0.164581E-03   0.381538E+00   0.483831E+01
   0.256000E+04   0.657680E-04   0.166027E-03   0.381538E+00   0.483831E+01
   0.257000E+04   0.661578E-04   0.167475E-03   0.381538E+00   0.483831E+01
   0.258000E+04   0.665492E-04   0.168926E-03   0.381537E+00   0.483831E+01
   0.259000E+04   0.669420E-04   0.170380E-03   0.381536E+00   0.483831E+01
   0.260000E+04   0.673364E-04   0.171836E-03   0.381536E+00   0.483831E+01
   0.261000E+04   0.677323E-04   0.173295E-03   0.381537E+00   0.483831E+01
   0.262000E+04   0.681296E-04   0.174757E-03   0.381537E+00   0.483831E+01
   0.263000E+04   0.685286E-04   0.176221E-03   0.381536E+00   0.483831E+01
   0.264000E+04   0.689290E-04   0.177688E-03   0.381535E+00   0.483831E+01
   0.265000E+04   0.693310E-04   0.179158E-03   0.381535E+00   0.483831E+01
   0.266000E+04   0.697344E-04   0.180630E-03   0.381536E+00   0.483831E+01
   0.267000E+04   0.701392E-04   0.182104E-03   0.381536E+00   0.483831E+01
   0.268000E+04   0.705455E-04   0.183581E-03   0.381534E+00   0.483831E+01
   0.269000E+04   0.709532E-04   0.185060E-03   0.381534E+00   0.483831E+01
   0.270000E+04   0.713621E-04   0.186540E-03   0.381534E+00   0.483831E+01
   0.271000E+04   0.717724E-04   0.188022E-03   0.381535E+00   0.483831E+01
   0.272000E+04   0.721838E-04   0.189505E-03   0.381534E+00   0.483831E+01
   0.273000E+04   0.725965E-04   0.190990E-03   0.381533E+00   0.483831E+01
   0.274000E+04   0.730103E-04   0.192475E-03   0.381532E+00   0.483831E+01
   0.275000E+04   0.734251E-04   0.193961E-03   0.381533E+00   0.483831E+01
   0.276000E+04   0.738408E-04   0.195448E-03   0.381534E+00   0.483831E+01
   0.277000E+04   0.742575E-04   0.196935E-03   0.381533E+00   0.483831E+01
   0.278000E+04   0.746751E-04   0.198421E-03   0.381532E+00   0.483831E+01
   0.279000E+04   0.750934E-04   0.199908E-03   0.381532E+00   0.483831E+01
   0.280000E+04   0.755124E-04   0.201393E-03   0.381532E+00   0.483831E+01
   0.281000E+04   0.759320E-04   0.202878E-03   0.381533E+00   0.483831E+01
   0.282000E+04   0.763522E-04   0.204362E-03   0.381532E+00   0.483831E+01
   0.283000E+04   0.767729E-04   0.205844E-03   0.381531E+00   0.483831E+01
   0.284000E+04   0.771939E-04   0.207324E-03   0.381531E+00   0.483831E+01
   0.285000E+04   0.776153E-04   0.208803E-03   0.381532E+00   0.483831E+01
   0.286000E+04   0.780368E-04   0.210278E-03   0.381532E+00   0.483831E+01
   0.287000E+04   0.784585E-04   0.211752E-03   0.381531E+00   0.483831E+01
   0.288000E+04   0.788804E-04   0.213222E-03   0.381530E+00   0.483831E+01
   0.289000E+04   0.793021E-04   0.214690E-03   0.381530E+00   0.483831E+01
   0.290000E+04   0.797238E-04   0.216154E-03   0.381531E+00   0.483831E+01
   0.291000E+04   0.801453E-04   0.217614E-03   0.381531E+00   0.483831E+01
   0.292000E+04   0.805666E-04   0.219070E-03   0.381530E+00   0.483831E+01
   0.293000E+04   0.809876E-04   0.220522E-03   0.381529E+00   0.483831E+01
   0.294000E+04   0.814082E-04   0.221969E-03   0.381530E+00   0.483831E+01
   0.295000E+04   0.818282E-04   0.223412E-03   0.381531E+00   0.483831E+01
   0.296000E+04   0.822477E-04   0.224850E-03   0.381530E+00   0.483831E+01
   0.297000E+04   0.826666E-04   0.226282E-03   0.381529E+00   0.483831E+01
   0.298000E+04   0.830848E-04   0.227709E-03   0.381529E+00   0.483831E+01
   0.299000E+04   0.835021E-04   0.229130E-03   0.381529E+00   0.483831E+01
   0.300000E+04   0.839186E-04   0.230546E-03   0.381530E+00   0.483831E+01
   0.301000E+04   0.843341E-04   0.231955E-03   0.381530E+00   0.483831E+01
   0.302000E+04   0.847487E-04   0.233357E-03   0.381529E+00   0.483831E+01
   0.303000E+04   0.851622E-04   0.234753E-03   0.381528E+00   0.483831E+01
   0.304000E+04   0.855744E-04   0.236142E-03   0.381529E+00   0.483831E+01
   0.305000E+04   0.859855E-04   0.237524E-03   0.381530E+00   0.483831E+01
   0.306000E+04   0.863952E-04   0.238899E-03   0.381529E+00   0.483831E+01
   0.307000E+04   0.868037E-04   0.240266E-03   0.381528E+00   0.483831E+01
   0.308000E+04   0.872106E-04   0.241625E-03   0.381528E+00   0.483831E+01
   0.309000E+04   0.876161E-04   0.242977E-03   0.381529E+00   0.483831E+01
   0.310000E+04   0.880199E-04   0.244320E-03   0.381530E+00   0.483831E+01
   0.311000E+04   0.884221E-04   0.245655E-03   0.381529E+00   0.483831E+01
   0.312000E+04   0.888226E-04   0.246982E-03   0.381528E+00   0.483831E+01
   0.313000E+04   0.892214E-04   0.248300E-03   0.381528E+00   0.483831E+01
   0.314000E+04   0.896182E-04   0.249608E-03   0.381529E+00   0.483831E+01
   0.315000E+04   0.900132E-04   0.250908E-03   0.381529E+00   0.483831E+01
   0.316000E+04   0.904062E-04   0.252199E-03   0.381528E+00   0.483831E+01
   0.317000E+04   0.907972E-04   0.253480E-03   0.381527E+00   0.483831E+01
   0.318000E+04   0.911861E-04   0.254751E-03   0.381528E+00   0.483831E+01
   0.319000E+04   0.915728E-04   0.256013E-03   0.381529E+00   0.483831E+01
   0.320000E+04   0.919573E-04   0.257265E-03   0.381529E+00   0.483831E+01
   0.321000E+04   0.923396E-04   0.258506E-03   0.381528E+00   0.483831E+01
   0.322000E+04   0.927195E-04   0.259738E-03   0.381527E+00   0.483831E+01
   0.323000E+04   0.930970E-04   0.260959E-03   0.381528E+00   0.483831E+01
   0.324000E+04   0.934721E-04   0.262169E-03   0.381529E+00   0.483831E+01
   0.325000E+04   0.938446E-04   0.263369E-03   0.381529E+00   0.483831E+01
   0.326000E+04   0.942147E-04   0.264558E-03   0.381528E+00   0.483831E+01
   0.327000E+04   0.945822E-04   0.265736E-03   0.381527E+00   0.483831E+01
   0.328000E+04   0.949470E-04   0.266902E-03   0.381528E+00   0.483831E+01
   0.329000E+04   0.953091E-04   0.268058E-03   0.381529E+00   0.483831E+01
   0.330000E+04   0.956685E-04   0.269202E-03   0.381529E+00   0.483831E+01
   0.331000E+04   0.960251E-04   0.270335E-03   0.381528E+00   0.483831E+01
   0.332000E+04   0.963790E-04   0.271457E-03   0.381527E+00   0.483831E+01
   0.333000E+04   0.967299E-04   0.272567E-03   0.381528E+00   0.483831E+01
   0.334000E+04   0.970780E-04   0.273665E-03   0.381529E+00   0.483831E+01
   0.335000E+04   0.974232E-04   0.274751E-03   0.381529E+00   0.483831E+01
   0.336000E+04   0.977655E-04   0.275826E-03   0.381527E+00   0.483831E+01
   0.337000E+04   0.981048E-04   0.276890E-03   0.381527E+00   0.483831E+01
   0.338000E+04   0.984411E-04   0.277941E-03   0.381528E+00   0.483831E+01
   0.339000E+04   0.987744E-04   0.278980E-03   0.381529E+00   0.483831E+01
   0.340000E+04   0.991048E-04   0.280008E-03   0.381528E+00   0.483831E+01
   0.341000E+04   0.994321E-04   0.281024E-03   0.381527E+00   0.483831E+01
   0.342000E+04   0.997563E-04   0.282028E-03   0.381528E+00   0.483831E+01
   0.343000E+04   0.100077E-03   0.283021E-03   0.381529E+00   0.483831E+01
   0.344000E+04   0.100396E-03   0.284001E-03   0.381529E+00   0.483831E+01
   0.345000E+04   0.100711E-03   0.284970E-03   0.381528E+00   0.483831E+01
   0.346000E+04   0.101023E-03   0.285928E-03   0.381527E+00   0.483831E+01
   0.347000E+04   0.101332E-03   0.286874E-03   0.381528E+00   0.483831E+01
   0.348000E+04   0.101638E-03   0.287808E-03   0.381529E+00   0.483831E+01
   0.349000E+04   0.101941E-03   0.288731E-03   0.381529E+00   0.483831E+01
   0.350000E+04   0.102240E-03   0.289642E-03   0.381528E+00   0.483831E+01
   0.351000E+04   0.102537E-03   0.290543E-03   0.381527E+00   0.483831E+01
   0.352000E+04   0.102831E-03   0.291432E-03   0.381528E+00   0.483831E+01
   0.353000E+04   0.103122E-03   0.292310E-03   0.381529E+00   0.483831E+01
   0.354000E+04   0.103410E-03   0.293178E-03   0.381529E+00   0.483831E+01
   0.355000E+04   0.103695E-03   0.294034E-03   0.381528E+00   0.483831E+01
   0.356000E+04   0.103977E-03   0.294881E-03   0.381527E+00   0.483831E+01
   0.357000E+04   0.104257E-03   0.295716E-03   0.381528E+00   0.483831E+01
   0.358000E+04   0.104533E-03   0.296542E-03   0.381529E+00   0.483831E+01
   0.359000E+04   0.104807E-03   0.297357E-03   0.381529E+00   0.483831E+01
   0.360000E+04   0.105077E-03   0.298163E-03   0.381528E+00   0.483831E+01
   0.361000E+04   0.105346E-03   0.298959E-03   0.381528E+00   0.483831E+01
   0.362000E+04   0.105611E-03   0.299745E-03   0.381529E+00   0.483831E+01
   0.363000E+04   0.105874E-03   0.300522E-03   0.381529E+00   0.483831E+01
   0.364000E+04   0.106134E-03   0.301290E-03   0.381529E+00   0.483831E+01
   0.365000E+04   0.106391E-03   0.302049E-03   0.381528E+00   0.483831E+01
   0.366000E+04   0.106647E-03   0.302800E-03   0.381528E+00   0.483831E+01
   0.367000E+04   0.106899E-03   0.303541E-03   0.381529E+00   0.483831E+01
   0.368000E+04   0.107149E-03   0.304275E-03   0.381530E+00   0.483831E+01
   0.369000E+04   0.107397E-03   0.305000E-03   0.381529E+00   0.483831E+01
   0.370000E+04   0.107643E-03   0.305718E-03   0.381528E+00   0.483831E+01
   0.371000E+04   0.107886E-03   0.306428E-03   0.381528E+00   0.483831E+01
   0.372000E+04   0.108127E-03   0.307130E-03   0.381529E+00   0.483831E+01
   0.373000E+04   0.108365E-03   0.307825E-03   0.381530E+00   0.483831E+01
   0.374000E+04   0.108602E-03   0.308513E-03   0.381529E+00   0.483831E+01
   0.375000E+04   0.108837E-03   0.309195E-03   0.381528E+00   0.483831E+01
   0.376000E+04   0.109069E-03   0.309869E-03   0.381529E+00   0.483831E+01
   0.377000E+04   0.109300E-03   0.310537E-03   0.381530E+00   0.483831E+01
   0.378000E+04   0.109528E-03   0.311199E-03   0.381530E+00   0.483831E+01
   0.379000E+04   0.109755E-03   0.311855E-03   0.381529E+00   0.483831E+01
   0.380000E+04   0.109979E-03   0.312505E-03   0.381528E+00   0.483831E+01
   0.381000E+04   0.110202E-03   0.313149E-03   0.381529E+00   0.483831E+01
   0.382000E+04   0.110424E-03   0.313788E-03   0.381530E+00   0.483831E+01
   0.383000E+04   0.110643E-03   0.314422E-03   0.381530E+00   0.483831E+01
   0.384000E+04   0.110861E-03   0.315050E-03   0.381529E+00   0.483831E+01
   0.385000E+04   0.111077E-03   0.315674E-03   0.381529E+00   0.483831E+01
   0.386000E+04   0.111292E-03   0.316292E-03   0.381529E+00   0.483831E+01
   0.387000E+04   0.111505E-03   0.316906E-03   0.381530E+00   0.483831E+01
   0.388000E+04   0.111716E-03   0.317516E-03   0.381530E+00   0.483831E+01
   0.389000E+04   0.111926E-03   0.318121E-03   0.381529E+00   0.483831E+01
   0.390000E+04   0.112135E-03   0.318722E-03   0.381529E+00   0.483831E+01
   0.391000E+04   0.112342E-03   0.319319E-03   0.381530E+00   0.483831E+01
   0.392000E+04   0.112548E-03   0.319912E-03   0.381531E+00   0.483831E+01
   0.393000E+04   0.112753E-03   0.320502E-03   0.381530E+00   0.483831E+01