title="breakthrough data set at     5 wells"
variables="time(days)","cavg","cpk","upk","zswi"
zone i=     1295
   0.100000E+02   0.170396E-07   0.263283E-07   0.446641E+00   0.484677E+01
   0.200000E+02   0.372828E-07   0.602711E-07   0.370233E+00   0.482778E+01
   0.300000E+02   0.684000E-07   0.113122E-06   0.369840E+00   0.482778E+01
   0.400000E+02   0.113248E-06   0.189953E-06   0.369811E+00   0.482778E+01
   0.500000E+02   0.174859E-06   0.296128E-06   0.369817E+00   0.482778E+01
   0.600000E+02   0.256286E-06   0.437028E-06   0.369846E+00   0.482778E+01
   0.700000E+02   0.360375E-06   0.617644E-06   0.369891E+00   0.482778E+01
   0.800000E+02   0.489533E-06   0.842170E-06   0.369953E+00   0.482778E+01
   0.900000E+02   0.645497E-06   0.111358E-05   0.370044E+00   0.482778E+01
   0.100000E+03   0.829395E-06   0.143373E-05   0.370113E+00   0.482778E+01
   0.110000E+03   0.104138E-05   0.180273E-05   0.370219E+00   0.482778E+01
   0.120000E+03   0.128086E-05   0.221930E-05   0.370330E+00   0.482778E+01
   0.130000E+03   0.154646E-05   0.268079E-05   0.370443E+00   0.482778E+01
   0.140000E+03   0.183613E-05   0.318330E-05   0.370557E+00   0.482778E+01
   0.150000E+03   0.214816E-05   0.372335E-05   0.370560E+00   0.482778E+01
   0.160000E+03   0.247935E-05   0.429508E-05   0.370671E+00   0.482778E+01
   0.170000E+03   0.282670E-05   0.489288E-05   0.370785E+00   0.482778E+01
   0.180000E+03   0.318698E-05   0.551084E-05   0.370899E+00   0.482778E+01
   0.190000E+03   0.355689E-05   0.614289E-05   0.371010E+00   0.482778E+01
   0.200000E+03   0.393311E-05   0.678305E-05   0.371119E+00   0.482778E+01
   0.210000E+03   0.431242E-05   0.742553E-05   0.371225E+00   0.482778E+01
   0.220000E+03   0.469181E-05   0.806494E-05   0.371328E+00   0.482778E+01
   0.230000E+03   0.506851E-05   0.869639E-05   0.371427E+00   0.482778E+01
   0.240000E+03   0.544004E-05   0.931557E-05   0.371523E+00   0.482778E+01
   0.250000E+03   0.580424E-05   0.991876E-05   0.371615E+00   0.482778E+01
   0.260000E+03   0.615929E-05   0.105029E-04   0.371704E+00   0.482778E+01
   0.270000E+03   0.650363E-05   0.110654E-04   0.371790E+00   0.482778E+01
   0.280000E+03   0.683603E-05   0.116042E-04   0.371872E+00   0.482778E+01
   0.290000E+03   0.715548E-05   0.121179E-04   0.371952E+00   0.482778E+01
   0.300000E+03   0.746119E-05   0.126053E-04   0.372028E+00   0.482778E+01
   0.310000E+03   0.775259E-05   0.130655E-04   0.372102E+00   0.482778E+01
   0.320000E+03   0.802927E-05   0.134980E-04   0.372173E+00   0.482778E+01
   0.330000E+03   0.829100E-05   0.139027E-04   0.372241E+00   0.482778E+01
   0.340000E+03   0.853771E-05   0.143479E-04   0.372307E+00   0.482778E+01
   0.350000E+03   0.876948E-05   0.148115E-04   0.372370E+00   0.482778E+01
   0.360000E+03   0.898652E-05   0.152534E-04   0.372431E+00   0.482778E+01
   0.370000E+03   0.918916E-05   0.156736E-04   0.372491E+00   0.482778E+01
   0.380000E+03   0.937783E-05   0.160726E-04   0.372548E+00   0.482778E+01
   0.390000E+03   0.955305E-05   0.164505E-04   0.372603E+00   0.482778E+01
   0.400000E+03   0.971540E-05   0.168079E-04   0.372656E+00   0.482778E+01
   0.410000E+03   0.986550E-05   0.171455E-04   0.372707E+00   0.482778E+01
   0.420000E+03   0.100040E-04   0.174637E-04   0.372756E+00   0.482778E+01
   0.430000E+03   0.101317E-04   0.177633E-04   0.372804E+00   0.482778E+01
   0.440000E+03   0.102492E-04   0.180451E-04   0.372850E+00   0.482778E+01
   0.450000E+03   0.103572E-04   0.183099E-04   0.372895E+00   0.482778E+01
   0.460000E+03   0.104566E-04   0.185585E-04   0.372938E+00   0.482778E+01
   0.470000E+03   0.105482E-04   0.187919E-04   0.372979E+00   0.482778E+01
   0.480000E+03   0.106327E-04   0.190111E-04   0.373019E+00   0.482778E+01
   0.490000E+03   0.107109E-04   0.192172E-04   0.373057E+00   0.482778E+01
   0.500000E+03   0.107837E-04   0.194115E-04   0.373094E+00   0.482778E+01
   0.510000E+03   0.108521E-04   0.195952E-04   0.373129E+00   0.482778E+01
   0.520000E+03   0.109169E-04   0.197697E-04   0.373163E+00   0.482778E+01
   0.530000E+03   0.109791E-04   0.199367E-04   0.373196E+00   0.482778E+01
   0.540000E+03   0.110397E-04   0.200977E-04   0.373227E+00   0.482778E+01
   0.550000E+03   0.110997E-04   0.202544E-04   0.373258E+00   0.482778E+01
   0.560000E+03   0.111601E-04   0.204086E-04   0.373287E+00   0.482778E+01
   0.570000E+03   0.112218E-04   0.205623E-04   0.373315E+00   0.482778E+01
   0.580000E+03   0.112861E-04   0.207173E-04   0.373343E+00   0.482778E+01
   0.590000E+03   0.113537E-04   0.208756E-04   0.373369E+00   0.482778E+01
   0.600000E+03   0.114257E-04   0.210392E-04   0.373395E+00   0.482778E+01
   0.610000E+03   0.115030E-04   0.212100E-04   0.373419E+00   0.482778E+01
   0.620000E+03   0.115865E-04   0.213899E-04   0.373443E+00   0.482778E+01
   0.630000E+03   0.116769E-04   0.215809E-04   0.373466E+00   0.482778E+01
   0.640000E+03   0.117752E-04   0.217849E-04   0.373489E+00   0.482778E+01
   0.650000E+03   0.118820E-04   0.220036E-04   0.373511E+00   0.482778E+01
   0.660000E+03   0.119979E-04   0.222386E-04   0.373532E+00   0.482778E+01
   0.670000E+03   0.121236E-04   0.224916E-04   0.373552E+00   0.482778E+01
   0.680000E+03   0.122595E-04   0.227641E-04   0.373571E+00   0.482778E+01
   0.690000E+03   0.124060E-04   0.230573E-04   0.373590E+00   0.482778E+01
   0.700000E+03   0.125635E-04   0.233724E-04   0.373608E+00   0.482778E+01
   0.710000E+03   0.127323E-04   0.237103E-04   0.373626E+00   0.482778E+01
   0.720000E+03   0.129126E-04   0.240720E-04   0.373643E+00   0.482778E+01
   0.730000E+03   0.131044E-04   0.244579E-04   0.373660E+00   0.482778E+01
   0.740000E+03   0.133078E-04   0.248685E-04   0.373676E+00   0.482778E+01
   0.750000E+03   0.135227E-04   0.253041E-04   0.373691E+00   0.482778E+01
   0.760000E+03   0.137491E-04   0.257649E-04   0.373706E+00   0.482778E+01
   0.770000E+03   0.139869E-04   0.262506E-04   0.373720E+00   0.482778E+01
   0.780000E+03   0.142357E-04   0.267612E-04   0.373734E+00   0.482778E+01
   0.790000E+03   0.144954E-04   0.272963E-04   0.373747E+00   0.482778E+01
   0.800000E+03   0.147657E-04   0.278554E-04   0.373760E+00   0.482778E+01
   0.810000E+03   0.150462E-04   0.284381E-04   0.373773E+00   0.482778E+01
   0.820000E+03   0.153367E-04   0.290437E-04   0.373785E+00   0.482778E+01
   0.830000E+03   0.156367E-04   0.296714E-04   0.373797E+00   0.482778E+01
   0.840000E+03   0.159459E-04   0.303206E-04   0.373808E+00   0.482778E+01
   0.850000E+03   0.162640E-04   0.309905E-04   0.373819E+00   0.482778E+01
   0.860000E+03   0.165905E-04   0.316802E-04   0.373830E+00   0.482778E+01
   0.870000E+03   0.169251E-04   0.323890E-04   0.373840E+00   0.482778E+01
   0.880000E+03   0.172674E-04   0.331160E-04   0.373850E+00   0.482778E+01
   0.890000E+03   0.176172E-04   0.338605E-04   0.373860E+00   0.482778E+01
   0.900000E+03   0.179740E-04   0.346216E-04   0.373870E+00   0.482778E+01
   0.910000E+03   0.183377E-04   0.353986E-04   0.373880E+00   0.482778E+01
   0.920000E+03   0.187078E-04   0.361907E-04   0.373889E+00   0.482778E+01
   0.930000E+03   0.190843E-04   0.369974E-04   0.373898E+00   0.482778E+01
   0.940000E+03   0.194667E-04   0.378179E-04   0.373907E+00   0.482778E+01
   0.950000E+03   0.198550E-04   0.386516E-04   0.373915E+00   0.482778E+01
   0.960000E+03   0.202488E-04   0.394979E-04   0.373924E+00   0.482778E+01
   0.970000E+03   0.206480E-04   0.403560E-04   0.373932E+00   0.482778E+01
   0.980000E+03   0.210524E-04   0.412253E-04   0.373940E+00   0.482778E+01
   0.990000E+03   0.214618E-04   0.421053E-04   0.373947E+00   0.482778E+01
   0.100000E+04   0.218759E-04   0.429951E-04   0.373955E+00   0.482778E+01
   0.101000E+04   0.222945E-04   0.438941E-04   0.373962E+00   0.482778E+01
   0.102000E+04   0.227175E-04   0.448017E-04   0.373969E+00   0.482778E+01
   0.103000E+04   0.231446E-04   0.457170E-04   0.373976E+00   0.482778E+01
   0.104000E+04   0.235757E-04   0.466394E-04   0.373983E+00   0.482778E+01
   0.105000E+04   0.240104E-04   0.475681E-04   0.373989E+00   0.482778E+01
   0.106000E+04   0.244485E-04   0.485025E-04   0.373996E+00   0.482778E+01
   0.107000E+04   0.248900E-04   0.494417E-04   0.374002E+00   0.482778E+01
   0.108000E+04   0.253344E-04   0.503852E-04   0.374008E+00   0.482778E+01
   0.109000E+04   0.257817E-04   0.513321E-04   0.374014E+00   0.482778E+01
   0.110000E+04   0.262316E-04   0.522818E-04   0.374020E+00   0.482778E+01
   0.111000E+04   0.266839E-04   0.532336E-04   0.374025E+00   0.482778E+01
   0.112000E+04   0.271384E-04   0.541870E-04   0.374031E+00   0.482778E+01
   0.113000E+04   0.275949E-04   0.551412E-04   0.374036E+00   0.482778E+01
   0.114000E+04   0.280532E-04   0.560958E-04   0.374042E+00   0.482778E+01
   0.115000E+04   0.285132E-04   0.570501E-04   0.374047E+00   0.482778E+01
   0.116000E+04   0.289746E-04   0.580036E-04   0.374052E+00   0.482778E+01
   0.117000E+04   0.294374E-04   0.589558E-04   0.374057E+00   0.482778E+01
   0.118000E+04   0.299012E-04   0.599063E-04   0.374062E+00   0.482778E+01
   0.119000E+04   0.303661E-04   0.608546E-04   0.374067E+00   0.482778E+01
   0.120000E+04   0.308318E-04   0.618003E-04   0.374072E+00   0.482778E+01
   0.121000E+04   0.312982E-04   0.627430E-04   0.374077E+00   0.482778E+01
   0.122000E+04   0.317652E-04   0.636823E-04   0.374082E+00   0.482778E+01
   0.123000E+04   0.322327E-04   0.646180E-04   0.374087E+00   0.482778E+01
   0.124000E+04   0.327006E-04   0.655496E-04   0.374091E+00   0.482778E+01
   0.125000E+04   0.331686E-04   0.664768E-04   0.374096E+00   0.482778E+01
   0.126000E+04   0.336368E-04   0.673993E-04   0.374100E+00   0.482778E+01
   0.127000E+04   0.341050E-04   0.683166E-04   0.374105E+00   0.482778E+01
   0.128000E+04   0.345731E-04   0.692286E-04   0.374109E+00   0.482778E+01
   0.129000E+04   0.350409E-04   0.701348E-04   0.374114E+00   0.482778E+01
   0.130000E+04   0.355084E-04   0.710352E-04   0.374118E+00   0.482778E+01
   0.131000E+04   0.359755E-04   0.719294E-04   0.374122E+00   0.482778E+01
   0.132000E+04   0.364420E-04   0.728173E-04   0.374127E+00   0.482778E+01
   0.133000E+04   0.369079E-04   0.736989E-04   0.374131E+00   0.482778E+01
   0.134000E+04   0.373732E-04   0.745742E-04   0.374135E+00   0.482778E+01
   0.135000E+04   0.378378E-04   0.754430E-04   0.374139E+00   0.482778E+01
   0.136000E+04   0.383016E-04   0.763056E-04   0.374143E+00   0.482778E+01
   0.137000E+04   0.387647E-04   0.771619E-04   0.374148E+00   0.482778E+01
   0.138000E+04   0.392269E-04   0.780122E-04   0.374152E+00   0.482778E+01
   0.139000E+04   0.396883E-04   0.788566E-04   0.374156E+00   0.482778E+01
   0.140000E+04   0.401489E-04   0.796951E-04   0.374160E+00   0.482778E+01
   0.141000E+04   0.406086E-04   0.805281E-04   0.374164E+00   0.482778E+01
   0.142000E+04   0.410674E-04   0.813558E-04   0.374167E+00   0.482778E+01
   0.143000E+04   0.415253E-04   0.821781E-04   0.374171E+00   0.482778E+01
   0.144000E+04   0.419822E-04   0.829951E-04   0.374175E+00   0.482778E+01
   0.145000E+04   0.424383E-04   0.838073E-04   0.374179E+00   0.482778E+01
   0.146000E+04   0.428934E-04   0.846149E-04   0.374182E+00   0.482778E+01
   0.147000E+04   0.433474E-04   0.854175E-04   0.374186E+00   0.482778E+01
   0.148000E+04   0.438002E-04   0.862153E-04   0.374190E+00   0.482778E+01
   0.149000E+04   0.442522E-04   0.870089E-04   0.374194E+00   0.482778E+01
   0.150000E+04   0.447034E-04   0.877987E-04   0.374196E+00   0.482778E+01
   0.151000E+04   0.451532E-04   0.885840E-04   0.374200E+00   0.482778E+01
   0.152000E+04   0.456016E-04   0.893648E-04   0.374207E+00   0.482778E+01
   0.153000E+04   0.460497E-04   0.901432E-04   0.374210E+00   0.482778E+01
   0.154000E+04   0.464980E-04   0.909207E-04   0.374211E+00   0.482778E+01
   0.155000E+04   0.469414E-04   0.916924E-04   0.374216E+00   0.482778E+01
   0.156000E+04   0.473865E-04   0.924733E-04   0.374256E+00   0.482778E+01
   0.157000E+04   0.478596E-04   0.933126E-04   0.374280E+00   0.482778E+01
   0.158000E+04   0.484057E-04   0.942983E-04   0.374276E+00   0.482778E+01
   0.159000E+04   0.490536E-04   0.955008E-04   0.374279E+00   0.482778E+01
   0.160000E+04   0.498068E-04   0.969472E-04   0.374300E+00   0.482778E+01
   0.161000E+04   0.506464E-04   0.986163E-04   0.374337E+00   0.482778E+01
   0.162000E+04   0.515529E-04   0.100472E-03   0.374351E+00   0.482778E+01
   0.163000E+04   0.525203E-04   0.102495E-03   0.374351E+00   0.482778E+01
   0.164000E+04   0.535545E-04   0.104684E-03   0.374340E+00   0.482778E+01
   0.165000E+04   0.546576E-04   0.107038E-03   0.374335E+00   0.482778E+01
   0.166000E+04   0.558172E-04   0.109534E-03   0.374338E+00   0.482778E+01
   0.167000E+04   0.570070E-04   0.112123E-03   0.374365E+00   0.482778E+01
   0.168000E+04   0.582046E-04   0.114755E-03   0.374375E+00   0.482778E+01
   0.169000E+04   0.594034E-04   0.117405E-03   0.374373E+00   0.482778E+01
   0.170000E+04   0.606118E-04   0.120075E-03   0.374362E+00   0.482778E+01
   0.171000E+04   0.618395E-04   0.122776E-03   0.374353E+00   0.482778E+01
   0.172000E+04   0.630834E-04   0.125507E-03   0.374351E+00   0.482778E+01
   0.173000E+04   0.643255E-04   0.128237E-03   0.374372E+00   0.482778E+01
   0.174000E+04   0.655472E-04   0.130932E-03   0.374385E+00   0.482778E+01
   0.175000E+04   0.667427E-04   0.133572E-03   0.374382E+00   0.482778E+01
   0.176000E+04   0.679225E-04   0.136168E-03   0.374373E+00   0.482778E+01
   0.177000E+04   0.691024E-04   0.138745E-03   0.374361E+00   0.482778E+01
   0.178000E+04   0.702868E-04   0.141316E-03   0.374356E+00   0.482778E+01
   0.179000E+04   0.714642E-04   0.143867E-03   0.374369E+00   0.482778E+01
   0.180000E+04   0.726171E-04   0.146371E-03   0.374388E+00   0.482778E+01
   0.181000E+04   0.737365E-04   0.148805E-03   0.374387E+00   0.482778E+01
   0.182000E+04   0.748313E-04   0.151179E-03   0.374379E+00   0.482778E+01
   0.183000E+04   0.759194E-04   0.153521E-03   0.374365E+00   0.482778E+01
   0.184000E+04   0.770107E-04   0.155853E-03   0.374359E+00   0.482778E+01
   0.185000E+04   0.780999E-04   0.158174E-03   0.374364E+00   0.482778E+01
   0.186000E+04   0.791697E-04   0.160458E-03   0.374386E+00   0.482778E+01
   0.187000E+04   0.802076E-04   0.162681E-03   0.374389E+00   0.482778E+01
   0.188000E+04   0.812183E-04   0.164844E-03   0.374384E+00   0.482778E+01
   0.189000E+04   0.822190E-04   0.166974E-03   0.374371E+00   0.482778E+01
   0.190000E+04   0.832244E-04   0.169097E-03   0.374363E+00   0.482778E+01
   0.191000E+04   0.842347E-04   0.171223E-03   0.374362E+00   0.482778E+01
   0.192000E+04   0.852337E-04   0.173330E-03   0.374384E+00   0.482778E+01
   0.193000E+04   0.862060E-04   0.175391E-03   0.374392E+00   0.482778E+01
   0.194000E+04   0.871505E-04   0.177397E-03   0.374388E+00   0.482778E+01
   0.195000E+04   0.880821E-04   0.179368E-03   0.374378E+00   0.482778E+01
   0.196000E+04   0.890186E-04   0.181335E-03   0.374367E+00   0.482778E+01
   0.197000E+04   0.899647E-04   0.183313E-03   0.374364E+00   0.482778E+01
   0.198000E+04   0.909076E-04   0.185290E-03   0.374380E+00   0.482778E+01
   0.199000E+04   0.918294E-04   0.187233E-03   0.374394E+00   0.482778E+01
   0.200000E+04   0.927232E-04   0.189127E-03   0.374392E+00   0.482778E+01
   0.201000E+04   0.936004E-04   0.190983E-03   0.374384E+00   0.482778E+01
   0.202000E+04   0.944805E-04   0.192832E-03   0.374372E+00   0.482778E+01
   0.203000E+04   0.953726E-04   0.194696E-03   0.374367E+00   0.482778E+01
   0.204000E+04   0.962690E-04   0.196571E-03   0.374375E+00   0.482778E+01
   0.205000E+04   0.971505E-04   0.198427E-03   0.374395E+00   0.482778E+01
   0.206000E+04   0.980051E-04   0.200237E-03   0.374395E+00   0.482778E+01
   0.207000E+04   0.988397E-04   0.202008E-03   0.374390E+00   0.482778E+01
   0.208000E+04   0.996737E-04   0.203767E-03   0.374377E+00   0.482778E+01
   0.209000E+04   0.100521E-03   0.205541E-03   0.374371E+00   0.482778E+01
   0.210000E+04   0.101379E-03   0.207336E-03   0.374372E+00   0.482778E+01
   0.211000E+04   0.102228E-03   0.209124E-03   0.374394E+00   0.482778E+01
   0.212000E+04   0.103054E-03   0.210876E-03   0.374398E+00   0.482778E+01
   0.213000E+04   0.103858E-03   0.212587E-03   0.374394E+00   0.482778E+01
   0.214000E+04   0.104658E-03   0.214281E-03   0.374384E+00   0.482778E+01
   0.215000E+04   0.105470E-03   0.215989E-03   0.374375E+00   0.482778E+01
   0.216000E+04   0.106297E-03   0.217723E-03   0.374374E+00   0.482778E+01
   0.217000E+04   0.107122E-03   0.219463E-03   0.374393E+00   0.482778E+01
   0.218000E+04   0.107928E-03   0.221174E-03   0.374402E+00   0.482778E+01
   0.219000E+04   0.108709E-03   0.222843E-03   0.374398E+00   0.482778E+01
   0.220000E+04   0.109480E-03   0.224487E-03   0.374390E+00   0.482778E+01
   0.221000E+04   0.110261E-03   0.226138E-03   0.374380E+00   0.482778E+01
   0.222000E+04   0.111058E-03   0.227815E-03   0.374377E+00   0.482778E+01
   0.223000E+04   0.111859E-03   0.229505E-03   0.374389E+00   0.482778E+01
   0.224000E+04   0.112644E-03   0.231173E-03   0.374405E+00   0.482778E+01
   0.225000E+04   0.113401E-03   0.232797E-03   0.374402E+00   0.482778E+01
   0.226000E+04   0.114142E-03   0.234385E-03   0.374396E+00   0.482778E+01
   0.227000E+04   0.114886E-03   0.235968E-03   0.374384E+00   0.482778E+01
   0.228000E+04   0.115646E-03   0.237571E-03   0.374380E+00   0.482778E+01
   0.229000E+04   0.116414E-03   0.239192E-03   0.374386E+00   0.482778E+01
   0.230000E+04   0.117170E-03   0.240799E-03   0.374405E+00   0.482778E+01
   0.231000E+04   0.117898E-03   0.242361E-03   0.374406E+00   0.482778E+01
   0.232000E+04   0.118604E-03   0.243879E-03   0.374401E+00   0.482778E+01
   0.233000E+04   0.119307E-03   0.245380E-03   0.374390E+00   0.482778E+01
   0.234000E+04   0.120024E-03   0.246896E-03   0.374384E+00   0.482778E+01
   0.235000E+04   0.120753E-03   0.248433E-03   0.374385E+00   0.482778E+01
   0.236000E+04   0.121477E-03   0.249967E-03   0.374404E+00   0.482778E+01
   0.237000E+04   0.122175E-03   0.251461E-03   0.374410E+00   0.482778E+01
   0.238000E+04   0.122848E-03   0.252908E-03   0.374406E+00   0.482778E+01
   0.239000E+04   0.123510E-03   0.254328E-03   0.374397E+00   0.482778E+01
   0.240000E+04   0.124184E-03   0.255754E-03   0.374389E+00   0.482778E+01
   0.241000E+04   0.124873E-03   0.257204E-03   0.374387E+00   0.482778E+01
   0.242000E+04   0.125563E-03   0.258660E-03   0.374402E+00   0.482778E+01
   0.243000E+04   0.126232E-03   0.260086E-03   0.374414E+00   0.482778E+01
   0.244000E+04   0.126872E-03   0.261462E-03   0.374411E+00   0.482778E+01
   0.245000E+04   0.127497E-03   0.262802E-03   0.374403E+00   0.482778E+01
   0.246000E+04   0.128127E-03   0.264138E-03   0.374393E+00   0.482778E+01
   0.247000E+04   0.128774E-03   0.265497E-03   0.374390E+00   0.482778E+01
   0.248000E+04   0.129428E-03   0.266870E-03   0.374398E+00   0.482778E+01
   0.249000E+04   0.130067E-03   0.268225E-03   0.374416E+00   0.482778E+01
   0.250000E+04   0.130678E-03   0.269532E-03   0.374415E+00   0.482778E+01
   0.251000E+04   0.131266E-03   0.270795E-03   0.374410E+00   0.482778E+01
   0.252000E+04   0.131854E-03   0.272043E-03   0.374398E+00   0.482778E+01
   0.253000E+04   0.132457E-03   0.273309E-03   0.374394E+00   0.482778E+01
   0.254000E+04   0.133074E-03   0.274597E-03   0.374396E+00   0.482778E+01
   0.255000E+04   0.133684E-03   0.275880E-03   0.374416E+00   0.482778E+01
   0.256000E+04   0.134268E-03   0.277122E-03   0.374419E+00   0.482778E+01
   0.257000E+04   0.134827E-03   0.278317E-03   0.374415E+00   0.482778E+01
   0.258000E+04   0.135378E-03   0.279488E-03   0.374406E+00   0.482778E+01
   0.259000E+04   0.135943E-03   0.280671E-03   0.374399E+00   0.482778E+01
   0.260000E+04   0.136526E-03   0.281880E-03   0.374398E+00   0.482778E+01
   0.261000E+04   0.137109E-03   0.283097E-03   0.374414E+00   0.482778E+01
   0.262000E+04   0.137672E-03   0.284284E-03   0.374423E+00   0.482778E+01
   0.263000E+04   0.138206E-03   0.285422E-03   0.374420E+00   0.482778E+01
   0.264000E+04   0.138727E-03   0.286528E-03   0.374412E+00   0.482778E+01
   0.265000E+04   0.139257E-03   0.287637E-03   0.374403E+00   0.482778E+01
   0.266000E+04   0.139806E-03   0.288771E-03   0.374401E+00   0.482778E+01
   0.267000E+04   0.140363E-03   0.289923E-03   0.374411E+00   0.482778E+01
   0.268000E+04   0.140905E-03   0.291057E-03   0.374426E+00   0.482778E+01
   0.269000E+04   0.141418E-03   0.292143E-03   0.374424E+00   0.482778E+01
   0.270000E+04   0.141911E-03   0.293189E-03   0.374419E+00   0.482778E+01
   0.271000E+04   0.142407E-03   0.294225E-03   0.374408E+00   0.482778E+01
   0.272000E+04   0.142921E-03   0.295284E-03   0.374405E+00   0.482778E+01
   0.273000E+04   0.143449E-03   0.296367E-03   0.374408E+00   0.482778E+01
   0.274000E+04   0.143969E-03   0.297444E-03   0.374427E+00   0.482778E+01
   0.275000E+04   0.144462E-03   0.298480E-03   0.374428E+00   0.482778E+01
   0.276000E+04   0.144932E-03   0.299470E-03   0.374424E+00   0.482778E+01
   0.277000E+04   0.145398E-03   0.300442E-03   0.374415E+00   0.482778E+01
   0.278000E+04   0.145880E-03   0.301431E-03   0.374409E+00   0.482778E+01
   0.279000E+04   0.146381E-03   0.302450E-03   0.374409E+00   0.482778E+01
   0.280000E+04   0.146882E-03   0.303476E-03   0.374426E+00   0.482778E+01
   0.281000E+04   0.147361E-03   0.304470E-03   0.374433E+00   0.482778E+01
   0.282000E+04   0.147813E-03   0.305417E-03   0.374429E+00   0.482778E+01
   0.283000E+04   0.148255E-03   0.306337E-03   0.374421E+00   0.482778E+01
   0.284000E+04   0.148709E-03   0.307265E-03   0.374413E+00   0.482778E+01
   0.285000E+04   0.149184E-03   0.308224E-03   0.374411E+00   0.482778E+01
   0.286000E+04   0.149667E-03   0.309201E-03   0.374423E+00   0.482778E+01
   0.287000E+04   0.150133E-03   0.310156E-03   0.374436E+00   0.482778E+01
   0.288000E+04   0.150570E-03   0.311065E-03   0.374433E+00   0.482778E+01
   0.289000E+04   0.150990E-03   0.311937E-03   0.374427E+00   0.482778E+01
   0.290000E+04   0.151417E-03   0.312807E-03   0.374417E+00   0.482778E+01
   0.291000E+04   0.151864E-03   0.313704E-03   0.374414E+00   0.482778E+01
   0.292000E+04   0.152325E-03   0.314627E-03   0.374420E+00   0.482778E+01
   0.293000E+04   0.152776E-03   0.315541E-03   0.374438E+00   0.482778E+01
   0.294000E+04   0.153200E-03   0.316412E-03   0.374437E+00   0.482778E+01
   0.295000E+04   0.153601E-03   0.317240E-03   0.374433E+00   0.482778E+01
   0.296000E+04   0.154003E-03   0.318056E-03   0.374422E+00   0.482778E+01
   0.297000E+04   0.154423E-03   0.318894E-03   0.374418E+00   0.482778E+01
   0.298000E+04   0.154863E-03   0.319764E-03   0.374419E+00   0.482778E+01
   0.299000E+04   0.155300E-03   0.320639E-03   0.374437E+00   0.482778E+01
   0.300000E+04   0.155714E-03   0.321479E-03   0.374441E+00   0.482778E+01
   0.301000E+04   0.156102E-03   0.322274E-03   0.374437E+00   0.482778E+01
   0.302000E+04   0.156483E-03   0.323047E-03   0.374428E+00   0.482778E+01
   0.303000E+04   0.156880E-03   0.323835E-03   0.374422E+00   0.482778E+01
   0.304000E+04   0.157299E-03   0.324658E-03   0.374421E+00   0.482778E+01
   0.305000E+04   0.157723E-03   0.325496E-03   0.374435E+00   0.482778E+01
   0.306000E+04   0.158128E-03   0.326309E-03   0.374445E+00   0.482778E+01
   0.307000E+04   0.158504E-03   0.327076E-03   0.374441E+00   0.482778E+01
   0.308000E+04   0.158867E-03   0.327811E-03   0.374434E+00   0.482778E+01
   0.309000E+04   0.159241E-03   0.328551E-03   0.374425E+00   0.482778E+01
   0.310000E+04   0.159636E-03   0.329324E-03   0.374423E+00   0.482778E+01
   0.311000E+04   0.160044E-03   0.330121E-03   0.374431E+00   0.482778E+01
   0.312000E+04   0.160438E-03   0.330906E-03   0.374447E+00   0.482778E+01
   0.313000E+04   0.160804E-03   0.331645E-03   0.374445E+00   0.482778E+01
   0.314000E+04   0.161150E-03   0.332344E-03   0.374439E+00   0.482778E+01
   0.315000E+04   0.161499E-03   0.333036E-03   0.374429E+00   0.482778E+01
   0.316000E+04   0.161868E-03   0.333754E-03   0.374425E+00   0.482778E+01
   0.317000E+04   0.162255E-03   0.334504E-03   0.374428E+00   0.482778E+01
   0.318000E+04   0.162636E-03   0.335254E-03   0.374447E+00   0.482778E+01
   0.319000E+04   0.162991E-03   0.335964E-03   0.374448E+00   0.482778E+01
   0.320000E+04   0.163322E-03   0.336630E-03   0.374444E+00   0.482778E+01
   0.321000E+04   0.163649E-03   0.337279E-03   0.374434E+00   0.482778E+01
   0.322000E+04   0.163993E-03   0.337948E-03   0.374428E+00   0.482778E+01
   0.323000E+04   0.164360E-03   0.338653E-03   0.374428E+00   0.482778E+01
   0.324000E+04   0.164729E-03   0.339369E-03   0.374445E+00   0.482778E+01
   0.325000E+04   0.165076E-03   0.340057E-03   0.374451E+00   0.482778E+01
   0.326000E+04   0.165396E-03   0.340699E-03   0.374447E+00   0.482778E+01
   0.327000E+04   0.165705E-03   0.341314E-03   0.374439E+00   0.482778E+01
   0.328000E+04   0.166028E-03   0.341940E-03   0.374431E+00   0.482778E+01
   0.329000E+04   0.166373E-03   0.342601E-03   0.374429E+00   0.482778E+01
   0.330000E+04   0.166728E-03   0.343285E-03   0.374441E+00   0.482778E+01
   0.331000E+04   0.167067E-03   0.343951E-03   0.374454E+00   0.482778E+01
   0.332000E+04   0.167377E-03   0.344570E-03   0.374450E+00   0.482778E+01
   0.333000E+04   0.167669E-03   0.345153E-03   0.374444E+00   0.482778E+01
   0.334000E+04   0.167968E-03   0.345736E-03   0.374434E+00   0.482778E+01
   0.335000E+04   0.168289E-03   0.346348E-03   0.374431E+00   0.482778E+01
   0.336000E+04   0.168625E-03   0.346991E-03   0.374436E+00   0.482778E+01
   0.337000E+04   0.168953E-03   0.347628E-03   0.374454E+00   0.482778E+01
   0.338000E+04   0.169252E-03   0.348222E-03   0.374453E+00   0.482778E+01
   0.339000E+04   0.169528E-03   0.348774E-03   0.374448E+00   0.482778E+01
   0.340000E+04   0.169804E-03   0.349314E-03   0.374437E+00   0.482778E+01
   0.341000E+04   0.170099E-03   0.349876E-03   0.374433E+00   0.482778E+01
   0.342000E+04   0.170416E-03   0.350475E-03   0.374434E+00   0.482778E+01
   0.343000E+04   0.170731E-03   0.351080E-03   0.374452E+00   0.482778E+01
   0.344000E+04   0.171023E-03   0.351653E-03   0.374455E+00   0.482778E+01
   0.345000E+04   0.171287E-03   0.352180E-03   0.374451E+00   0.482778E+01
   0.346000E+04   0.171544E-03   0.352685E-03   0.374442E+00   0.482778E+01
   0.347000E+04   0.171817E-03   0.353204E-03   0.374435E+00   0.482778E+01
   0.348000E+04   0.172113E-03   0.353760E-03   0.374434E+00   0.482778E+01
   0.349000E+04   0.172415E-03   0.354335E-03   0.374448E+00   0.482778E+01
   0.350000E+04   0.172700E-03   0.354887E-03   0.374458E+00   0.482778E+01
   0.351000E+04   0.172954E-03   0.355392E-03   0.374454E+00   0.482778E+01
   0.352000E+04   0.173194E-03   0.355865E-03   0.374447E+00   0.482778E+01
   0.353000E+04   0.173444E-03   0.356342E-03   0.374437E+00   0.482778E+01
   0.354000E+04   0.173717E-03   0.356853E-03   0.374435E+00   0.482778E+01
   0.355000E+04   0.174004E-03   0.357391E-03   0.374443E+00   0.482778E+01
   0.356000E+04   0.174279E-03   0.357919E-03   0.374459E+00   0.482778E+01
   0.357000E+04   0.174525E-03   0.358402E-03   0.374456E+00   0.482778E+01
   0.358000E+04   0.174749E-03   0.358843E-03   0.374451E+00   0.482778E+01
   0.359000E+04   0.174975E-03   0.359277E-03   0.374440E+00   0.482778E+01
   0.360000E+04   0.175223E-03   0.359737E-03   0.374437E+00   0.482778E+01
   0.361000E+04   0.175490E-03   0.360232E-03   0.374439E+00   0.482778E+01
   0.362000E+04   0.175752E-03   0.360728E-03   0.374457E+00   0.482778E+01
   0.363000E+04   0.175989E-03   0.361187E-03   0.374458E+00   0.482778E+01
   0.364000E+04   0.176200E-03   0.361601E-03   0.374454E+00   0.482778E+01
   0.365000E+04   0.176406E-03   0.361997E-03   0.374444E+00   0.482778E+01
   0.366000E+04   0.176631E-03   0.362412E-03   0.374439E+00   0.482778E+01
   0.367000E+04   0.176878E-03   0.362865E-03   0.374438E+00   0.482778E+01
   0.368000E+04   0.177130E-03   0.363333E-03   0.374454E+00   0.482778E+01
   0.369000E+04   0.177361E-03   0.363775E-03   0.374461E+00   0.482778E+01
   0.370000E+04   0.177563E-03   0.364170E-03   0.374457E+00   0.482778E+01
   0.371000E+04   0.177754E-03   0.364537E-03   0.374449E+00   0.482778E+01
   0.372000E+04   0.177958E-03   0.364914E-03   0.374441E+00   0.482778E+01
   0.373000E+04   0.178186E-03   0.365327E-03   0.374439E+00   0.482778E+01
   0.374000E+04   0.178425E-03   0.365766E-03   0.374449E+00   0.482778E+01
   0.375000E+04   0.178650E-03   0.366190E-03   0.374463E+00   0.482778E+01
   0.376000E+04   0.178845E-03   0.366569E-03   0.374459E+00   0.482778E+01
   0.377000E+04   0.179021E-03   0.366910E-03   0.374453E+00   0.482778E+01
   0.378000E+04   0.179203E-03   0.367248E-03   0.374443E+00   0.482778E+01
   0.379000E+04   0.179408E-03   0.367617E-03   0.374440E+00   0.482778E+01
   0.380000E+04   0.179630E-03   0.368019E-03   0.374444E+00   0.482778E+01
   0.381000E+04   0.179845E-03   0.368418E-03   0.374462E+00   0.482778E+01
   0.382000E+04   0.180033E-03   0.368778E-03   0.374461E+00   0.482778E+01
   0.383000E+04   0.180196E-03   0.369094E-03   0.374457E+00   0.482778E+01
   0.384000E+04   0.180357E-03   0.369396E-03   0.374446E+00   0.482778E+01
   0.385000E+04   0.180539E-03   0.369722E-03   0.374442E+00   0.482778E+01
   0.386000E+04   0.180744E-03   0.370087E-03   0.374442E+00   0.482778E+01
   0.387000E+04   0.180950E-03   0.370462E-03   0.374460E+00   0.482778E+01
   0.388000E+04   0.181133E-03   0.370808E-03   0.374464E+00   0.482778E+01
   0.389000E+04   0.181288E-03   0.371109E-03   0.374460E+00   0.482778E+01
   0.390000E+04   0.181435E-03   0.371387E-03   0.374451E+00   0.482778E+01
   0.391000E+04   0.181598E-03   0.371679E-03   0.374444E+00   0.482778E+01
   0.392000E+04   0.181785E-03   0.372010E-03   0.374442E+00   0.482778E+01
   0.393000E+04   0.181981E-03   0.372363E-03   0.374455E+00   0.482778E+01