title="breakthrough data set at     5 wells"
variables="time(days)","cavg","cpk","upk","zswi"
zone i=     1295
   0.100000E+02   0.241860E-10   0.422600E-10   0.464040E+00   0.483646E+01
   0.200000E+02   0.626797E-10   0.115224E-09   0.379703E+00   0.481776E+01
   0.300000E+02   0.142517E-09   0.266567E-09   0.379231E+00   0.481776E+01
   0.400000E+02   0.292532E-09   0.550852E-09   0.379184E+00   0.481776E+01
   0.500000E+02   0.554912E-09   0.104802E-08   0.379184E+00   0.481776E+01
   0.600000E+02   0.989084E-09   0.187070E-08   0.379200E+00   0.481776E+01
   0.700000E+02   0.167555E-08   0.317133E-08   0.379233E+00   0.481776E+01
   0.800000E+02   0.272007E-08   0.514972E-08   0.379267E+00   0.481776E+01
   0.900000E+02   0.425620E-08   0.805743E-08   0.379321E+00   0.481776E+01
   0.100000E+03   0.644899E-08   0.122038E-07   0.379378E+00   0.481776E+01
   0.110000E+03   0.949685E-08   0.179584E-07   0.379437E+00   0.481776E+01
   0.120000E+03   0.136326E-07   0.257516E-07   0.379497E+00   0.481776E+01
   0.130000E+03   0.191168E-07   0.360644E-07   0.379500E+00   0.481776E+01
   0.140000E+03   0.262572E-07   0.494512E-07   0.379556E+00   0.481776E+01
   0.150000E+03   0.353860E-07   0.665076E-07   0.379614E+00   0.481776E+01
   0.160000E+03   0.468632E-07   0.878705E-07   0.379672E+00   0.481776E+01
   0.170000E+03   0.610721E-07   0.114208E-06   0.379730E+00   0.481776E+01
   0.180000E+03   0.784144E-07   0.146208E-06   0.379787E+00   0.481776E+01
   0.190000E+03   0.993046E-07   0.184570E-06   0.379843E+00   0.481776E+01
   0.200000E+03   0.124164E-06   0.229988E-06   0.379897E+00   0.481776E+01
   0.210000E+03   0.153417E-06   0.283143E-06   0.379950E+00   0.481776E+01
   0.220000E+03   0.187480E-06   0.344693E-06   0.380001E+00   0.481776E+01
   0.230000E+03   0.226763E-06   0.415258E-06   0.380050E+00   0.481776E+01
   0.240000E+03   0.271659E-06   0.495417E-06   0.380098E+00   0.481776E+01
   0.250000E+03   0.322541E-06   0.585699E-06   0.380144E+00   0.481776E+01
   0.260000E+03   0.379761E-06   0.686572E-06   0.380189E+00   0.481776E+01
   0.270000E+03   0.443641E-06   0.798446E-06   0.380232E+00   0.481776E+01
   0.280000E+03   0.514474E-06   0.921663E-06   0.380273E+00   0.481776E+01
   0.290000E+03   0.592520E-06   0.105650E-05   0.380313E+00   0.481776E+01
   0.300000E+03   0.678005E-06   0.120315E-05   0.380351E+00   0.481776E+01
   0.310000E+03   0.771118E-06   0.136176E-05   0.380388E+00   0.481776E+01
   0.320000E+03   0.872014E-06   0.153240E-05   0.380424E+00   0.481776E+01
   0.330000E+03   0.980809E-06   0.171506E-05   0.380458E+00   0.481776E+01
   0.340000E+03   0.109758E-05   0.190969E-05   0.380491E+00   0.481776E+01
   0.350000E+03   0.122238E-05   0.211614E-05   0.380523E+00   0.481776E+01
   0.360000E+03   0.135521E-05   0.233425E-05   0.380554E+00   0.481776E+01
   0.370000E+03   0.149605E-05   0.256377E-05   0.380584E+00   0.481776E+01
   0.380000E+03   0.164483E-05   0.280442E-05   0.380613E+00   0.481776E+01
   0.390000E+03   0.180148E-05   0.305587E-05   0.380641E+00   0.481776E+01
   0.400000E+03   0.196587E-05   0.331774E-05   0.380668E+00   0.481776E+01
   0.410000E+03   0.213785E-05   0.358964E-05   0.380693E+00   0.481776E+01
   0.420000E+03   0.231726E-05   0.387112E-05   0.380718E+00   0.481776E+01
   0.430000E+03   0.250389E-05   0.416172E-05   0.380742E+00   0.481776E+01
   0.440000E+03   0.269755E-05   0.446096E-05   0.380764E+00   0.481776E+01
   0.450000E+03   0.289798E-05   0.476833E-05   0.380786E+00   0.481776E+01
   0.460000E+03   0.310493E-05   0.508334E-05   0.380807E+00   0.481776E+01
   0.470000E+03   0.331815E-05   0.540544E-05   0.380827E+00   0.481776E+01
   0.480000E+03   0.353735E-05   0.573413E-05   0.380846E+00   0.481776E+01
   0.490000E+03   0.376224E-05   0.606886E-05   0.380864E+00   0.481776E+01
   0.500000E+03   0.399251E-05   0.640912E-05   0.380882E+00   0.481776E+01
   0.510000E+03   0.422787E-05   0.675437E-05   0.380899E+00   0.481776E+01
   0.520000E+03   0.446800E-05   0.710411E-05   0.380915E+00   0.481776E+01
   0.530000E+03   0.471258E-05   0.745782E-05   0.380930E+00   0.481776E+01
   0.540000E+03   0.496129E-05   0.781501E-05   0.380944E+00   0.481776E+01
   0.550000E+03   0.521382E-05   0.817518E-05   0.380958E+00   0.481776E+01
   0.560000E+03   0.546984E-05   0.853786E-05   0.380971E+00   0.481776E+01
   0.570000E+03   0.572903E-05   0.890257E-05   0.380983E+00   0.481776E+01
   0.580000E+03   0.599107E-05   0.926888E-05   0.380995E+00   0.481776E+01
   0.590000E+03   0.625565E-05   0.963632E-05   0.381005E+00   0.481776E+01
   0.600000E+03   0.652243E-05   0.100045E-04   0.381016E+00   0.481776E+01
   0.610000E+03   0.679112E-05   0.103729E-04   0.381026E+00   0.481776E+01
   0.620000E+03   0.706139E-05   0.107412E-04   0.381035E+00   0.481776E+01
   0.630000E+03   0.733294E-05   0.111090E-04   0.381044E+00   0.481776E+01
   0.640000E+03   0.760547E-05   0.114758E-04   0.381052E+00   0.481776E+01
   0.650000E+03   0.787865E-05   0.118414E-04   0.381060E+00   0.481776E+01
   0.660000E+03   0.815220E-05   0.122052E-04   0.381067E+00   0.481776E+01
   0.670000E+03   0.842580E-05   0.125670E-04   0.381074E+00   0.481776E+01
   0.680000E+03   0.869915E-05   0.129263E-04   0.381080E+00   0.481776E+01
   0.690000E+03   0.897195E-05   0.132827E-04   0.381087E+00   0.481776E+01
   0.700000E+03   0.924388E-05   0.136360E-04   0.381092E+00   0.481776E+01
   0.710000E+03   0.951466E-05   0.139858E-04   0.381098E+00   0.481776E+01
   0.720000E+03   0.978396E-05   0.143316E-04   0.381103E+00   0.481776E+01
   0.730000E+03   0.100515E-04   0.146732E-04   0.381108E+00   0.481776E+01
   0.740000E+03   0.103170E-04   0.150103E-04   0.381113E+00   0.481776E+01
   0.750000E+03   0.105801E-04   0.153425E-04   0.381117E+00   0.481776E+01
   0.760000E+03   0.108406E-04   0.156694E-04   0.381122E+00   0.481776E+01
   0.770000E+03   0.110983E-04   0.159910E-04   0.381126E+00   0.481776E+01
   0.780000E+03   0.113527E-04   0.163068E-04   0.381130E+00   0.481776E+01
   0.790000E+03   0.116038E-04   0.166167E-04   0.381134E+00   0.481776E+01
   0.800000E+03   0.118513E-04   0.169204E-04   0.381138E+00   0.481776E+01
   0.810000E+03   0.120949E-04   0.172177E-04   0.381141E+00   0.481776E+01
   0.820000E+03   0.123346E-04   0.175086E-04   0.381145E+00   0.481776E+01
   0.830000E+03   0.125701E-04   0.177928E-04   0.381148E+00   0.481776E+01
   0.840000E+03   0.128013E-04   0.180703E-04   0.381151E+00   0.481776E+01
   0.850000E+03   0.130280E-04   0.183409E-04   0.381154E+00   0.481776E+01
   0.860000E+03   0.132502E-04   0.186047E-04   0.381157E+00   0.481776E+01
   0.870000E+03   0.134677E-04   0.188615E-04   0.381161E+00   0.481776E+01
   0.880000E+03   0.136804E-04   0.191114E-04   0.381164E+00   0.481776E+01
   0.890000E+03   0.138884E-04   0.193544E-04   0.381167E+00   0.481776E+01
   0.900000E+03   0.140915E-04   0.195904E-04   0.381170E+00   0.481776E+01
   0.910000E+03   0.142897E-04   0.198195E-04   0.381173E+00   0.481776E+01
   0.920000E+03   0.144829E-04   0.200417E-04   0.381176E+00   0.481776E+01
   0.930000E+03   0.146711E-04   0.202571E-04   0.381179E+00   0.481776E+01
   0.940000E+03   0.148543E-04   0.204658E-04   0.381182E+00   0.481776E+01
   0.950000E+03   0.150324E-04   0.206678E-04   0.381185E+00   0.481776E+01
   0.960000E+03   0.152055E-04   0.208631E-04   0.381188E+00   0.481776E+01
   0.970000E+03   0.153734E-04   0.210520E-04   0.381191E+00   0.481776E+01
   0.980000E+03   0.155362E-04   0.212344E-04   0.381194E+00   0.481776E+01
   0.990000E+03   0.156940E-04   0.214105E-04   0.381197E+00   0.481776E+01
   0.100000E+04   0.158466E-04   0.215805E-04   0.381200E+00   0.481776E+01
   0.101000E+04   0.159941E-04   0.217443E-04   0.381203E+00   0.481776E+01
   0.102000E+04   0.161366E-04   0.219022E-04   0.381206E+00   0.481776E+01
   0.103000E+04   0.162741E-04   0.220542E-04   0.381210E+00   0.481776E+01
   0.104000E+04   0.164066E-04   0.222005E-04   0.381213E+00   0.481776E+01
   0.105000E+04   0.165342E-04   0.223413E-04   0.381216E+00   0.481776E+01
   0.106000E+04   0.166569E-04   0.224767E-04   0.381219E+00   0.481776E+01
   0.107000E+04   0.167750E-04   0.226068E-04   0.381223E+00   0.481776E+01
   0.108000E+04   0.168884E-04   0.227318E-04   0.381226E+00   0.481776E+01
   0.109000E+04   0.169972E-04   0.228519E-04   0.381229E+00   0.481776E+01
   0.110000E+04   0.171017E-04   0.229671E-04   0.381233E+00   0.481776E+01
   0.111000E+04   0.172018E-04   0.230777E-04   0.381236E+00   0.481776E+01
   0.112000E+04   0.172978E-04   0.231837E-04   0.381240E+00   0.481776E+01
   0.113000E+04   0.173897E-04   0.232854E-04   0.381243E+00   0.481776E+01
   0.114000E+04   0.174777E-04   0.233830E-04   0.381247E+00   0.481776E+01
   0.115000E+04   0.175620E-04   0.234765E-04   0.381250E+00   0.481776E+01
   0.116000E+04   0.176427E-04   0.235661E-04   0.381254E+00   0.481776E+01
   0.117000E+04   0.177199E-04   0.236522E-04   0.381258E+00   0.481776E+01
   0.118000E+04   0.177939E-04   0.237347E-04   0.381261E+00   0.481776E+01
   0.119000E+04   0.178647E-04   0.238139E-04   0.381265E+00   0.481776E+01
   0.120000E+04   0.179326E-04   0.238901E-04   0.381269E+00   0.481776E+01
   0.121000E+04   0.179976E-04   0.239634E-04   0.381273E+00   0.481776E+01
   0.122000E+04   0.180601E-04   0.240340E-04   0.381277E+00   0.481776E+01
   0.123000E+04   0.181201E-04   0.241021E-04   0.381280E+00   0.481776E+01
   0.124000E+04   0.181779E-04   0.241681E-04   0.381284E+00   0.481776E+01
   0.125000E+04   0.182335E-04   0.242320E-04   0.381288E+00   0.481776E+01
   0.126000E+04   0.182873E-04   0.242941E-04   0.381291E+00   0.481776E+01
   0.127000E+04   0.183393E-04   0.243547E-04   0.381295E+00   0.481776E+01
   0.128000E+04   0.183898E-04   0.244139E-04   0.381298E+00   0.481776E+01
   0.129000E+04   0.184389E-04   0.244720E-04   0.381302E+00   0.481776E+01
   0.130000E+04   0.184869E-04   0.245293E-04   0.381305E+00   0.481776E+01
   0.131000E+04   0.185339E-04   0.245859E-04   0.381309E+00   0.481776E+01
   0.132000E+04   0.185801E-04   0.246420E-04   0.381312E+00   0.481776E+01
   0.133000E+04   0.186257E-04   0.246979E-04   0.381315E+00   0.481776E+01
   0.134000E+04   0.186708E-04   0.247538E-04   0.381319E+00   0.481776E+01
   0.135000E+04   0.187157E-04   0.248099E-04   0.381322E+00   0.481776E+01
   0.136000E+04   0.187606E-04   0.248664E-04   0.381325E+00   0.481776E+01
   0.137000E+04   0.188056E-04   0.249234E-04   0.381328E+00   0.481776E+01
   0.138000E+04   0.188509E-04   0.249812E-04   0.381331E+00   0.481776E+01
   0.139000E+04   0.188967E-04   0.250400E-04   0.381335E+00   0.481776E+01
   0.140000E+04   0.189432E-04   0.250999E-04   0.381338E+00   0.481776E+01
   0.141000E+04   0.189905E-04   0.251610E-04   0.381341E+00   0.481776E+01
   0.142000E+04   0.190388E-04   0.252236E-04   0.381344E+00   0.481776E+01
   0.143000E+04   0.190883E-04   0.252877E-04   0.381347E+00   0.481776E+01
   0.144000E+04   0.191391E-04   0.253536E-04   0.381350E+00   0.481776E+01
   0.145000E+04   0.191914E-04   0.254213E-04   0.381354E+00   0.481776E+01
   0.146000E+04   0.192453E-04   0.254911E-04   0.381357E+00   0.481776E+01
   0.147000E+04   0.193009E-04   0.255629E-04   0.381360E+00   0.481776E+01
   0.148000E+04   0.193585E-04   0.256370E-04   0.381363E+00   0.481776E+01
   0.149000E+04   0.194181E-04   0.257134E-04   0.381366E+00   0.481776E+01
   0.150000E+04   0.194798E-04   0.257923E-04   0.381369E+00   0.481776E+01
   0.151000E+04   0.195437E-04   0.258737E-04   0.381372E+00   0.481776E+01
   0.152000E+04   0.196099E-04   0.259577E-04   0.381375E+00   0.481776E+01
   0.153000E+04   0.196785E-04   0.260445E-04   0.381378E+00   0.481776E+01
   0.154000E+04   0.197496E-04   0.261340E-04   0.381381E+00   0.481776E+01
   0.155000E+04   0.198233E-04   0.262264E-04   0.381384E+00   0.481776E+01
   0.156000E+04   0.198995E-04   0.263216E-04   0.381387E+00   0.481776E+01
   0.157000E+04   0.199783E-04   0.264199E-04   0.381390E+00   0.481776E+01
   0.158000E+04   0.200598E-04   0.265211E-04   0.381393E+00   0.481776E+01
   0.159000E+04   0.201440E-04   0.266254E-04   0.381396E+00   0.481776E+01
   0.160000E+04   0.202308E-04   0.267327E-04   0.381399E+00   0.481776E+01
   0.161000E+04   0.203204E-04   0.268431E-04   0.381402E+00   0.481776E+01
   0.162000E+04   0.204126E-04   0.269566E-04   0.381405E+00   0.481776E+01
   0.163000E+04   0.205074E-04   0.270733E-04   0.381408E+00   0.481776E+01
   0.164000E+04   0.206049E-04   0.271931E-04   0.381411E+00   0.481776E+01
   0.165000E+04   0.207051E-04   0.273161E-04   0.381414E+00   0.481776E+01
   0.166000E+04   0.208077E-04   0.274422E-04   0.381417E+00   0.481776E+01
   0.167000E+04   0.209130E-04   0.275714E-04   0.381420E+00   0.481776E+01
   0.168000E+04   0.210207E-04   0.277037E-04   0.381423E+00   0.481776E+01
   0.169000E+04   0.211308E-04   0.278392E-04   0.381426E+00   0.481776E+01
   0.170000E+04   0.212432E-04   0.279777E-04   0.381429E+00   0.481776E+01
   0.171000E+04   0.213580E-04   0.281192E-04   0.381432E+00   0.481776E+01
   0.172000E+04   0.214750E-04   0.282637E-04   0.381435E+00   0.481776E+01
   0.173000E+04   0.215940E-04   0.284111E-04   0.381438E+00   0.481776E+01
   0.174000E+04   0.217151E-04   0.285614E-04   0.381441E+00   0.481776E+01
   0.175000E+04   0.218382E-04   0.287144E-04   0.381444E+00   0.481776E+01
   0.176000E+04   0.219631E-04   0.288702E-04   0.381447E+00   0.481776E+01
   0.177000E+04   0.220897E-04   0.290285E-04   0.381450E+00   0.481776E+01
   0.178000E+04   0.222179E-04   0.291893E-04   0.381453E+00   0.481776E+01
   0.179000E+04   0.223476E-04   0.293525E-04   0.381456E+00   0.481776E+01
   0.180000E+04   0.224787E-04   0.295180E-04   0.381458E+00   0.481776E+01
   0.181000E+04   0.226110E-04   0.296856E-04   0.381461E+00   0.481776E+01
   0.182000E+04   0.227446E-04   0.298553E-04   0.381464E+00   0.481776E+01
   0.183000E+04   0.228791E-04   0.300268E-04   0.381467E+00   0.481776E+01
   0.184000E+04   0.230146E-04   0.302000E-04   0.381470E+00   0.481776E+01
   0.185000E+04   0.231509E-04   0.303748E-04   0.381472E+00   0.481776E+01
   0.186000E+04   0.232879E-04   0.305510E-04   0.381475E+00   0.481776E+01
   0.187000E+04   0.234256E-04   0.307285E-04   0.381478E+00   0.481776E+01
   0.188000E+04   0.235638E-04   0.309072E-04   0.381480E+00   0.481776E+01
   0.189000E+04   0.237025E-04   0.310869E-04   0.381483E+00   0.481776E+01
   0.190000E+04   0.238416E-04   0.312674E-04   0.381486E+00   0.481776E+01
   0.191000E+04   0.239812E-04   0.314486E-04   0.381488E+00   0.481776E+01
   0.192000E+04   0.241210E-04   0.316303E-04   0.381491E+00   0.481776E+01
   0.193000E+04   0.242612E-04   0.318125E-04   0.381493E+00   0.481776E+01
   0.194000E+04   0.244017E-04   0.319951E-04   0.381496E+00   0.481776E+01
   0.195000E+04   0.245425E-04   0.321778E-04   0.381498E+00   0.481776E+01
   0.196000E+04   0.246838E-04   0.323606E-04   0.381501E+00   0.481776E+01
   0.197000E+04   0.248254E-04   0.325434E-04   0.381503E+00   0.481776E+01
   0.198000E+04   0.249674E-04   0.327260E-04   0.381506E+00   0.481776E+01
   0.199000E+04   0.251100E-04   0.329085E-04   0.381508E+00   0.481776E+01
   0.200000E+04   0.252532E-04   0.330907E-04   0.381510E+00   0.481776E+01
   0.201000E+04   0.253970E-04   0.332726E-04   0.381513E+00   0.481776E+01
   0.202000E+04   0.255416E-04   0.334540E-04   0.381515E+00   0.481776E+01
   0.203000E+04   0.256870E-04   0.336351E-04   0.381518E+00   0.481776E+01
   0.204000E+04   0.258334E-04   0.338156E-04   0.381520E+00   0.481776E+01
   0.205000E+04   0.259809E-04   0.339956E-04   0.381523E+00   0.481776E+01
   0.206000E+04   0.261295E-04   0.341751E-04   0.381525E+00   0.481776E+01
   0.207000E+04   0.262794E-04   0.343541E-04   0.381527E+00   0.481776E+01
   0.208000E+04   0.264306E-04   0.345326E-04   0.381530E+00   0.481776E+01
   0.209000E+04   0.265834E-04   0.347105E-04   0.381532E+00   0.481776E+01
   0.210000E+04   0.267377E-04   0.348880E-04   0.381534E+00   0.481776E+01
   0.211000E+04   0.268937E-04   0.350650E-04   0.381537E+00   0.481776E+01
   0.212000E+04   0.270515E-04   0.352415E-04   0.381539E+00   0.481776E+01
   0.213000E+04   0.272112E-04   0.354176E-04   0.381541E+00   0.481776E+01
   0.214000E+04   0.273729E-04   0.355933E-04   0.381543E+00   0.481776E+01
   0.215000E+04   0.275367E-04   0.357686E-04   0.381546E+00   0.481776E+01
   0.216000E+04   0.277026E-04   0.359437E-04   0.381548E+00   0.481776E+01
   0.217000E+04   0.278707E-04   0.361185E-04   0.381550E+00   0.481776E+01
   0.218000E+04   0.280412E-04   0.362931E-04   0.381552E+00   0.481776E+01
   0.219000E+04   0.282141E-04   0.364675E-04   0.381554E+00   0.481776E+01
   0.220000E+04   0.283895E-04   0.366419E-04   0.381557E+00   0.481776E+01
   0.221000E+04   0.285675E-04   0.368162E-04   0.381559E+00   0.481776E+01
   0.222000E+04   0.287480E-04   0.369905E-04   0.381561E+00   0.481776E+01
   0.223000E+04   0.289313E-04   0.371649E-04   0.381563E+00   0.481776E+01
   0.224000E+04   0.291173E-04   0.373394E-04   0.381565E+00   0.481776E+01
   0.225000E+04   0.293062E-04   0.375142E-04   0.381567E+00   0.481776E+01
   0.226000E+04   0.294980E-04   0.376892E-04   0.381569E+00   0.481776E+01
   0.227000E+04   0.296927E-04   0.378645E-04   0.381571E+00   0.481776E+01
   0.228000E+04   0.298904E-04   0.380402E-04   0.381574E+00   0.481776E+01
   0.229000E+04   0.300912E-04   0.382164E-04   0.381576E+00   0.481776E+01
   0.230000E+04   0.302950E-04   0.383931E-04   0.381578E+00   0.481776E+01
   0.231000E+04   0.305021E-04   0.385703E-04   0.381580E+00   0.481776E+01
   0.232000E+04   0.307123E-04   0.387482E-04   0.381582E+00   0.481776E+01
   0.233000E+04   0.309258E-04   0.389268E-04   0.381584E+00   0.481776E+01
   0.234000E+04   0.311426E-04   0.391062E-04   0.381586E+00   0.481776E+01
   0.235000E+04   0.313626E-04   0.392863E-04   0.381588E+00   0.481776E+01
   0.236000E+04   0.315861E-04   0.394672E-04   0.381590E+00   0.481776E+01
   0.237000E+04   0.318129E-04   0.396491E-04   0.381592E+00   0.481776E+01
   0.238000E+04   0.320431E-04   0.398319E-04   0.381594E+00   0.481776E+01
   0.239000E+04   0.322767E-04   0.400157E-04   0.381596E+00   0.481776E+01
   0.240000E+04   0.325138E-04   0.402005E-04   0.381598E+00   0.481776E+01
   0.241000E+04   0.327543E-04   0.403864E-04   0.381600E+00   0.481776E+01
   0.242000E+04   0.329983E-04   0.405734E-04   0.381602E+00   0.481776E+01
   0.243000E+04   0.332457E-04   0.407615E-04   0.381604E+00   0.481776E+01
   0.244000E+04   0.334967E-04   0.409508E-04   0.381606E+00   0.481776E+01
   0.245000E+04   0.337511E-04   0.411413E-04   0.381608E+00   0.481776E+01
   0.246000E+04   0.340091E-04   0.413331E-04   0.381609E+00   0.481776E+01
   0.247000E+04   0.342705E-04   0.415261E-04   0.381611E+00   0.481776E+01
   0.248000E+04   0.345355E-04   0.417205E-04   0.381613E+00   0.481776E+01
   0.249000E+04   0.348039E-04   0.419161E-04   0.381615E+00   0.481776E+01
   0.250000E+04   0.350759E-04   0.421132E-04   0.381617E+00   0.481776E+01
   0.251000E+04   0.353513E-04   0.423116E-04   0.381619E+00   0.481776E+01
   0.252000E+04   0.356301E-04   0.425113E-04   0.381621E+00   0.481776E+01
   0.253000E+04   0.359124E-04   0.427125E-04   0.381622E+00   0.481776E+01
   0.254000E+04   0.361982E-04   0.429624E-04   0.381624E+00   0.481776E+01
   0.255000E+04   0.364873E-04   0.434303E-04   0.381626E+00   0.481776E+01
   0.256000E+04   0.367797E-04   0.439026E-04   0.381628E+00   0.481776E+01
   0.257000E+04   0.370756E-04   0.443790E-04   0.381630E+00   0.481776E+01
   0.258000E+04   0.373746E-04   0.448597E-04   0.381631E+00   0.481776E+01
   0.259000E+04   0.376770E-04   0.453444E-04   0.381633E+00   0.481776E+01
   0.260000E+04   0.379825E-04   0.458331E-04   0.381635E+00   0.481776E+01
   0.261000E+04   0.382911E-04   0.463258E-04   0.381637E+00   0.481776E+01
   0.262000E+04   0.386028E-04   0.468222E-04   0.381638E+00   0.481776E+01
   0.263000E+04   0.389175E-04   0.473223E-04   0.381640E+00   0.481776E+01
   0.264000E+04   0.392351E-04   0.478260E-04   0.381642E+00   0.481776E+01
   0.265000E+04   0.395556E-04   0.483331E-04   0.381643E+00   0.481776E+01
   0.266000E+04   0.398787E-04   0.488434E-04   0.381645E+00   0.481776E+01
   0.267000E+04   0.402046E-04   0.493570E-04   0.381647E+00   0.481776E+01
   0.268000E+04   0.405330E-04   0.498735E-04   0.381648E+00   0.481776E+01
   0.269000E+04   0.408638E-04   0.503929E-04   0.381650E+00   0.481776E+01
   0.270000E+04   0.411970E-04   0.509150E-04   0.381651E+00   0.481776E+01
   0.271000E+04   0.415324E-04   0.514396E-04   0.381653E+00   0.481776E+01
   0.272000E+04   0.418699E-04   0.519666E-04   0.381655E+00   0.481776E+01
   0.273000E+04   0.422094E-04   0.524957E-04   0.381656E+00   0.481776E+01
   0.274000E+04   0.425508E-04   0.530269E-04   0.381658E+00   0.481776E+01
   0.275000E+04   0.428940E-04   0.538040E-04   0.381659E+00   0.481776E+01
   0.276000E+04   0.432388E-04   0.546329E-04   0.381661E+00   0.481776E+01
   0.277000E+04   0.435851E-04   0.554664E-04   0.381663E+00   0.481776E+01
   0.278000E+04   0.439328E-04   0.563042E-04   0.381664E+00   0.481776E+01
   0.279000E+04   0.442818E-04   0.571459E-04   0.381666E+00   0.481776E+01
   0.280000E+04   0.446319E-04   0.579912E-04   0.381667E+00   0.481776E+01
   0.281000E+04   0.449831E-04   0.588397E-04   0.381669E+00   0.481776E+01
   0.282000E+04   0.453351E-04   0.596910E-04   0.381670E+00   0.481776E+01
   0.283000E+04   0.456880E-04   0.605449E-04   0.381672E+00   0.481776E+01
   0.284000E+04   0.460415E-04   0.614008E-04   0.381673E+00   0.481776E+01
   0.285000E+04   0.463956E-04   0.622586E-04   0.381675E+00   0.481776E+01
   0.286000E+04   0.467501E-04   0.631179E-04   0.381676E+00   0.481776E+01
   0.287000E+04   0.471050E-04   0.639784E-04   0.381678E+00   0.481776E+01
   0.288000E+04   0.474601E-04   0.648398E-04   0.381679E+00   0.481776E+01
   0.289000E+04   0.478154E-04   0.657019E-04   0.381681E+00   0.481776E+01
   0.290000E+04   0.481708E-04   0.665643E-04   0.381682E+00   0.481776E+01
   0.291000E+04   0.485261E-04   0.674268E-04   0.381684E+00   0.481776E+01
   0.292000E+04   0.488814E-04   0.682893E-04   0.381685E+00   0.481776E+01
   0.293000E+04   0.492364E-04   0.691514E-04   0.381687E+00   0.481776E+01
   0.294000E+04   0.495912E-04   0.700131E-04   0.381688E+00   0.481776E+01
   0.295000E+04   0.499457E-04   0.708740E-04   0.381690E+00   0.481776E+01
   0.296000E+04   0.502998E-04   0.717342E-04   0.381691E+00   0.481776E+01
   0.297000E+04   0.506534E-04   0.725934E-04   0.381693E+00   0.481776E+01
   0.298000E+04   0.510066E-04   0.734515E-04   0.381694E+00   0.481776E+01
   0.299000E+04   0.513592E-04   0.743084E-04   0.381695E+00   0.481776E+01
   0.300000E+04   0.517113E-04   0.751641E-04   0.381697E+00   0.481776E+01
   0.301000E+04   0.520627E-04   0.760185E-04   0.381698E+00   0.481776E+01
   0.302000E+04   0.524136E-04   0.768716E-04   0.381700E+00   0.481776E+01
   0.303000E+04   0.527637E-04   0.777232E-04   0.381701E+00   0.481776E+01
   0.304000E+04   0.531132E-04   0.785735E-04   0.381702E+00   0.481776E+01
   0.305000E+04   0.534620E-04   0.794224E-04   0.381704E+00   0.481776E+01
   0.306000E+04   0.538101E-04   0.802700E-04   0.381705E+00   0.481776E+01
   0.307000E+04   0.541575E-04   0.811162E-04   0.381706E+00   0.481776E+01
   0.308000E+04   0.545041E-04   0.819612E-04   0.381708E+00   0.481776E+01
   0.309000E+04   0.548501E-04   0.828050E-04   0.381709E+00   0.481776E+01
   0.310000E+04   0.551954E-04   0.836476E-04   0.381710E+00   0.481776E+01
   0.311000E+04   0.555400E-04   0.844892E-04   0.381712E+00   0.481776E+01
   0.312000E+04   0.558839E-04   0.853298E-04   0.381713E+00   0.481776E+01
   0.313000E+04   0.562272E-04   0.861695E-04   0.381714E+00   0.481776E+01
   0.314000E+04   0.565698E-04   0.870084E-04   0.381716E+00   0.481776E+01
   0.315000E+04   0.569118E-04   0.878466E-04   0.381717E+00   0.481776E+01
   0.316000E+04   0.572533E-04   0.886843E-04   0.381718E+00   0.481776E+01
   0.317000E+04   0.575942E-04   0.895215E-04   0.381719E+00   0.481776E+01
   0.318000E+04   0.579345E-04   0.903583E-04   0.381721E+00   0.481776E+01
   0.319000E+04   0.582743E-04   0.911948E-04   0.381722E+00   0.481776E+01
   0.320000E+04   0.586137E-04   0.920312E-04   0.381723E+00   0.481776E+01
   0.321000E+04   0.589526E-04   0.928675E-04   0.381724E+00   0.481776E+01
   0.322000E+04   0.592911E-04   0.937038E-04   0.381726E+00   0.481776E+01
   0.323000E+04   0.596291E-04   0.945403E-04   0.381727E+00   0.481776E+01
   0.324000E+04   0.599669E-04   0.953770E-04   0.381728E+00   0.481776E+01
   0.325000E+04   0.603043E-04   0.962140E-04   0.381729E+00   0.481776E+01
   0.326000E+04   0.606414E-04   0.970515E-04   0.381730E+00   0.481776E+01
   0.327000E+04   0.609782E-04   0.978894E-04   0.381732E+00   0.481776E+01
   0.328000E+04   0.613148E-04   0.987279E-04   0.381733E+00   0.481776E+01
   0.329000E+04   0.616512E-04   0.995671E-04   0.381734E+00   0.481776E+01
   0.330000E+04   0.619875E-04   0.100407E-03   0.381735E+00   0.481776E+01
   0.331000E+04   0.623235E-04   0.101248E-03   0.381736E+00   0.481776E+01
   0.332000E+04   0.626595E-04   0.102089E-03   0.381737E+00   0.481776E+01
   0.333000E+04   0.629953E-04   0.102931E-03   0.381738E+00   0.481776E+01
   0.334000E+04   0.633311E-04   0.103775E-03   0.381740E+00   0.481776E+01
   0.335000E+04   0.636668E-04   0.104619E-03   0.381741E+00   0.481776E+01
   0.336000E+04   0.640025E-04   0.105464E-03   0.381742E+00   0.481776E+01
   0.337000E+04   0.643382E-04   0.106311E-03   0.381743E+00   0.481776E+01
   0.338000E+04   0.646739E-04   0.107158E-03   0.381744E+00   0.481776E+01
   0.339000E+04   0.650097E-04   0.108007E-03   0.381745E+00   0.481776E+01
   0.340000E+04   0.653455E-04   0.108856E-03   0.381746E+00   0.481776E+01
   0.341000E+04   0.656813E-04   0.109707E-03   0.381747E+00   0.481776E+01
   0.342000E+04   0.660173E-04   0.110559E-03   0.381748E+00   0.481776E+01
   0.343000E+04   0.663533E-04   0.111413E-03   0.381749E+00   0.481776E+01
   0.344000E+04   0.666894E-04   0.112267E-03   0.381750E+00   0.481776E+01
   0.345000E+04   0.670256E-04   0.113122E-03   0.381751E+00   0.481776E+01
   0.346000E+04   0.673620E-04   0.113979E-03   0.381752E+00   0.481776E+01
   0.347000E+04   0.676984E-04   0.114837E-03   0.381754E+00   0.481776E+01
   0.348000E+04   0.680350E-04   0.115696E-03   0.381755E+00   0.481776E+01
   0.349000E+04   0.683717E-04   0.116556E-03   0.381756E+00   0.481776E+01
   0.350000E+04   0.687086E-04   0.117417E-03   0.381757E+00   0.481776E+01
   0.351000E+04   0.690456E-04   0.118279E-03   0.381758E+00   0.481776E+01
   0.352000E+04   0.693827E-04   0.119142E-03   0.381759E+00   0.481776E+01
   0.353000E+04   0.697199E-04   0.120006E-03   0.381760E+00   0.481776E+01
   0.354000E+04   0.700573E-04   0.120871E-03   0.381761E+00   0.481776E+01
   0.355000E+04   0.703947E-04   0.121737E-03   0.381762E+00   0.481776E+01
   0.356000E+04   0.707324E-04   0.122604E-03   0.381762E+00   0.481776E+01
   0.357000E+04   0.710701E-04   0.123472E-03   0.381763E+00   0.481776E+01
   0.358000E+04   0.714079E-04   0.124340E-03   0.381764E+00   0.481776E+01
   0.359000E+04   0.717459E-04   0.125210E-03   0.381765E+00   0.481776E+01
   0.360000E+04   0.720839E-04   0.126080E-03   0.381766E+00   0.481776E+01
   0.361000E+04   0.724221E-04   0.126951E-03   0.381767E+00   0.481776E+01
   0.362000E+04   0.727604E-04   0.127822E-03   0.381768E+00   0.481776E+01
   0.363000E+04   0.730988E-04   0.128695E-03   0.381769E+00   0.481776E+01
   0.364000E+04   0.734373E-04   0.129568E-03   0.381770E+00   0.481776E+01
   0.365000E+04   0.737759E-04   0.130442E-03   0.381771E+00   0.481776E+01
   0.366000E+04   0.741146E-04   0.131316E-03   0.381772E+00   0.481776E+01
   0.367000E+04   0.744535E-04   0.132192E-03   0.381773E+00   0.481776E+01
   0.368000E+04   0.747925E-04   0.133068E-03   0.381773E+00   0.481776E+01
   0.369000E+04   0.751317E-04   0.133945E-03   0.381774E+00   0.481776E+01
   0.370000E+04   0.754710E-04   0.134823E-03   0.381775E+00   0.481776E+01
   0.371000E+04   0.758105E-04   0.135703E-03   0.381776E+00   0.481776E+01
   0.372000E+04   0.761503E-04   0.136583E-03   0.381777E+00   0.481776E+01
   0.373000E+04   0.764902E-04   0.137464E-03   0.381778E+00   0.481776E+01
   0.374000E+04   0.768304E-04   0.138347E-03   0.381779E+00   0.481776E+01
   0.375000E+04   0.771708E-04   0.139231E-03   0.381779E+00   0.481776E+01
   0.376000E+04   0.775115E-04   0.140116E-03   0.381780E+00   0.481776E+01
   0.377000E+04   0.778524E-04   0.141003E-03   0.381781E+00   0.481776E+01
   0.378000E+04   0.781937E-04   0.141891E-03   0.381782E+00   0.481776E+01
   0.379000E+04   0.785352E-04   0.142781E-03   0.381783E+00   0.481776E+01
   0.380000E+04   0.788770E-04   0.143673E-03   0.381783E+00   0.481776E+01
   0.381000E+04   0.792192E-04   0.144566E-03   0.381784E+00   0.481776E+01
   0.382000E+04   0.795616E-04   0.145461E-03   0.381785E+00   0.481776E+01
   0.383000E+04   0.799043E-04   0.146357E-03   0.381786E+00   0.481776E+01
   0.384000E+04   0.802472E-04   0.147255E-03   0.381786E+00   0.481776E+01
   0.385000E+04   0.805904E-04   0.148155E-03   0.381787E+00   0.481776E+01
   0.386000E+04   0.809337E-04   0.149056E-03   0.381788E+00   0.481776E+01
   0.387000E+04   0.812773E-04   0.149959E-03   0.381789E+00   0.481776E+01
   0.388000E+04   0.816209E-04   0.150863E-03   0.381790E+00   0.481776E+01
   0.389000E+04   0.819646E-04   0.151768E-03   0.381790E+00   0.481776E+01
   0.390000E+04   0.823084E-04   0.152675E-03   0.381791E+00   0.481776E+01
   0.391000E+04   0.826521E-04   0.153582E-03   0.381792E+00   0.481776E+01
   0.392000E+04   0.829958E-04   0.154490E-03   0.381793E+00   0.481776E+01
   0.393000E+04   0.833393E-04   0.155398E-03   0.381794E+00   0.481776E+01