title="breakthrough data set at     5 wells"
variables="time(days)","cavg","cpk","upk","zswi"
zone i=     1295
   0.100000E+02   0.262412E-09   0.416016E-09   0.455097E+00   0.486507E+01
   0.200000E+02   0.777753E-09   0.125078E-08   0.386160E+00   0.483974E+01
   0.300000E+02   0.182954E-08   0.295953E-08   0.385854E+00   0.483974E+01
   0.400000E+02   0.378624E-08   0.613938E-08   0.385788E+00   0.483974E+01
   0.500000E+02   0.716071E-08   0.116161E-07   0.385731E+00   0.483974E+01
   0.600000E+02   0.126235E-07   0.204593E-07   0.385675E+00   0.483974E+01
   0.700000E+02   0.210023E-07   0.339728E-07   0.385623E+00   0.483974E+01
   0.800000E+02   0.332689E-07   0.536646E-07   0.385577E+00   0.483974E+01
   0.900000E+02   0.505126E-07   0.811933E-07   0.385543E+00   0.483974E+01
   0.100000E+03   0.739337E-07   0.118351E-06   0.385535E+00   0.483974E+01
   0.110000E+03   0.104776E-06   0.166938E-06   0.385505E+00   0.483974E+01
   0.120000E+03   0.144290E-06   0.228693E-06   0.385446E+00   0.483974E+01
   0.130000E+03   0.193730E-06   0.305323E-06   0.385441E+00   0.483974E+01
   0.140000E+03   0.254272E-06   0.398317E-06   0.385420E+00   0.483974E+01
   0.150000E+03   0.327007E-06   0.508970E-06   0.385400E+00   0.483974E+01
   0.160000E+03   0.412903E-06   0.638321E-06   0.385384E+00   0.483974E+01
   0.170000E+03   0.512781E-06   0.787123E-06   0.385371E+00   0.483974E+01
   0.180000E+03   0.627298E-06   0.955823E-06   0.385361E+00   0.483974E+01
   0.190000E+03   0.756931E-06   0.114455E-05   0.385354E+00   0.483974E+01
   0.200000E+03   0.901968E-06   0.135313E-05   0.385349E+00   0.483974E+01
   0.210000E+03   0.106251E-05   0.158105E-05   0.385348E+00   0.483974E+01
   0.220000E+03   0.123846E-05   0.182752E-05   0.385349E+00   0.483974E+01
   0.230000E+03   0.142953E-05   0.209145E-05   0.385352E+00   0.483974E+01
   0.240000E+03   0.163527E-05   0.237150E-05   0.385358E+00   0.483974E+01
   0.250000E+03   0.185503E-05   0.266607E-05   0.385366E+00   0.483974E+01
   0.260000E+03   0.208800E-05   0.297331E-05   0.385375E+00   0.483974E+01
   0.270000E+03   0.233320E-05   0.329119E-05   0.385387E+00   0.483974E+01
   0.280000E+03   0.258950E-05   0.361746E-05   0.385400E+00   0.483974E+01
   0.290000E+03   0.285562E-05   0.394971E-05   0.385414E+00   0.483974E+01
   0.300000E+03   0.313012E-05   0.428541E-05   0.385430E+00   0.483974E+01
   0.310000E+03   0.341147E-05   0.462187E-05   0.385446E+00   0.483974E+01
   0.320000E+03   0.369800E-05   0.495636E-05   0.385464E+00   0.483974E+01
   0.330000E+03   0.398799E-05   0.528607E-05   0.385482E+00   0.483974E+01
   0.340000E+03   0.427963E-05   0.560821E-05   0.385501E+00   0.483974E+01
   0.350000E+03   0.457105E-05   0.591998E-05   0.385521E+00   0.483974E+01
   0.360000E+03   0.486038E-05   0.621862E-05   0.385541E+00   0.483974E+01
   0.370000E+03   0.514569E-05   0.650147E-05   0.385562E+00   0.483974E+01
   0.380000E+03   0.542508E-05   0.676599E-05   0.385584E+00   0.483974E+01
   0.390000E+03   0.569668E-05   0.700979E-05   0.385605E+00   0.483974E+01
   0.400000E+03   0.595868E-05   0.726400E-05   0.385627E+00   0.483974E+01
   0.410000E+03   0.620935E-05   0.753907E-05   0.385649E+00   0.483974E+01
   0.420000E+03   0.644710E-05   0.779112E-05   0.385671E+00   0.483974E+01
   0.430000E+03   0.667046E-05   0.801807E-05   0.385694E+00   0.483974E+01
   0.440000E+03   0.687810E-05   0.821813E-05   0.385716E+00   0.483974E+01
   0.450000E+03   0.706884E-05   0.856506E-05   0.385739E+00   0.483974E+01
   0.460000E+03   0.724162E-05   0.898226E-05   0.385761E+00   0.483974E+01
   0.470000E+03   0.739550E-05   0.939444E-05   0.385784E+00   0.483974E+01
   0.480000E+03   0.752960E-05   0.980055E-05   0.385806E+00   0.483974E+01
   0.490000E+03   0.764312E-05   0.101995E-04   0.385829E+00   0.483974E+01
   0.500000E+03   0.773530E-05   0.105902E-04   0.385851E+00   0.483974E+01
   0.510000E+03   0.780540E-05   0.109713E-04   0.385873E+00   0.483974E+01
   0.520000E+03   0.785270E-05   0.113414E-04   0.385895E+00   0.483974E+01
   0.530000E+03   0.787654E-05   0.116987E-04   0.385917E+00   0.483974E+01
   0.540000E+03   0.787627E-05   0.120414E-04   0.385939E+00   0.483974E+01
   0.550000E+03   0.785132E-05   0.123675E-04   0.385961E+00   0.483974E+01
   0.560000E+03   0.780119E-05   0.126748E-04   0.385982E+00   0.483974E+01
   0.570000E+03   0.772552E-05   0.129610E-04   0.386004E+00   0.483974E+01
   0.580000E+03   0.762409E-05   0.132239E-04   0.386025E+00   0.483974E+01
   0.590000E+03   0.749688E-05   0.134612E-04   0.386046E+00   0.483974E+01
   0.600000E+03   0.734408E-05   0.136707E-04   0.386066E+00   0.483974E+01
   0.610000E+03   0.716615E-05   0.138507E-04   0.386087E+00   0.483974E+01
   0.620000E+03   0.696382E-05   0.139995E-04   0.386107E+00   0.483974E+01
   0.630000E+03   0.673811E-05   0.141160E-04   0.386127E+00   0.483974E+01
   0.640000E+03   0.649034E-05   0.141995E-04   0.386147E+00   0.483974E+01
   0.650000E+03   0.622210E-05   0.142498E-04   0.386167E+00   0.483974E+01
   0.660000E+03   0.593528E-05   0.142674E-04   0.386186E+00   0.483974E+01
   0.670000E+03   0.563202E-05   0.142533E-04   0.386206E+00   0.483974E+01
   0.680000E+03   0.531465E-05   0.142091E-04   0.386225E+00   0.483974E+01
   0.690000E+03   0.498569E-05   0.141373E-04   0.386244E+00   0.483974E+01
   0.700000E+03   0.464777E-05   0.140405E-04   0.386263E+00   0.483974E+01
   0.710000E+03   0.430359E-05   0.139221E-04   0.386282E+00   0.483974E+01
   0.720000E+03   0.395589E-05   0.137858E-04   0.386301E+00   0.483974E+01
   0.730000E+03   0.360736E-05   0.136356E-04   0.386320E+00   0.483974E+01
   0.740000E+03   0.326065E-05   0.134757E-04   0.386338E+00   0.483974E+01
   0.750000E+03   0.291833E-05   0.133105E-04   0.386356E+00   0.483974E+01
   0.760000E+03   0.258282E-05   0.131442E-04   0.386374E+00   0.483974E+01
   0.770000E+03   0.225644E-05   0.129811E-04   0.386392E+00   0.483974E+01
   0.780000E+03   0.194137E-05   0.128256E-04   0.386409E+00   0.483974E+01
   0.790000E+03   0.163963E-05   0.126815E-04   0.386427E+00   0.483974E+01
   0.800000E+03   0.135311E-05   0.125527E-04   0.386444E+00   0.483974E+01
   0.810000E+03   0.108356E-05   0.124428E-04   0.386461E+00   0.483974E+01
   0.820000E+03   0.832587E-06   0.123552E-04   0.386477E+00   0.483974E+01
   0.830000E+03   0.601682E-06   0.122929E-04   0.386494E+00   0.483974E+01
   0.840000E+03   0.392204E-06   0.122588E-04   0.386510E+00   0.483974E+01
   0.850000E+03   0.205401E-06   0.122557E-04   0.386526E+00   0.483974E+01
   0.860000E+03   0.424138E-07   0.122857E-04   0.386542E+00   0.483974E+01
   0.870000E+03  -0.957153E-07   0.123514E-04   0.386557E+00   0.483974E+01
   0.880000E+03  -0.208037E-06   0.124546E-04   0.386573E+00   0.483974E+01
   0.890000E+03  -0.293686E-06   0.125973E-04   0.386588E+00   0.483974E+01
   0.900000E+03  -0.351878E-06   0.127813E-04   0.386603E+00   0.483974E+01
   0.910000E+03  -0.381905E-06   0.130083E-04   0.386618E+00   0.483974E+01
   0.920000E+03  -0.383130E-06   0.132799E-04   0.386633E+00   0.483974E+01
   0.930000E+03  -0.354990E-06   0.135976E-04   0.386647E+00   0.483974E+01
   0.940000E+03  -0.296992E-06   0.139630E-04   0.386661E+00   0.483974E+01
   0.950000E+03  -0.208718E-06   0.143773E-04   0.386675E+00   0.483974E+01
   0.960000E+03  -0.898245E-07   0.148420E-04   0.386689E+00   0.483974E+01
   0.970000E+03   0.599504E-07   0.153583E-04   0.386703E+00   0.483974E+01
   0.980000E+03   0.240788E-06   0.159274E-04   0.386717E+00   0.483974E+01
   0.990000E+03   0.452783E-06   0.165502E-04   0.386730E+00   0.483974E+01
   0.100000E+04   0.695947E-06   0.172276E-04   0.386744E+00   0.483974E+01
   0.101000E+04   0.970201E-06   0.179605E-04   0.386757E+00   0.483974E+01
   0.102000E+04   0.127538E-05   0.187494E-04   0.386770E+00   0.483974E+01
   0.103000E+04   0.161125E-05   0.195946E-04   0.386783E+00   0.483974E+01
   0.104000E+04   0.197748E-05   0.204965E-04   0.386795E+00   0.483974E+01
   0.105000E+04   0.237368E-05   0.214551E-04   0.386808E+00   0.483974E+01
   0.106000E+04   0.279938E-05   0.224703E-04   0.386820E+00   0.483974E+01
   0.107000E+04   0.325408E-05   0.235418E-04   0.386833E+00   0.483974E+01
   0.108000E+04   0.373719E-05   0.246691E-04   0.386845E+00   0.483974E+01
   0.109000E+04   0.424811E-05   0.258517E-04   0.386857E+00   0.483974E+01
   0.110000E+04   0.478620E-05   0.270888E-04   0.386868E+00   0.483974E+01
   0.111000E+04   0.535078E-05   0.283794E-04   0.386880E+00   0.483974E+01
   0.112000E+04   0.594117E-05   0.297228E-04   0.386892E+00   0.483974E+01
   0.113000E+04   0.655666E-05   0.311177E-04   0.386903E+00   0.483974E+01
   0.114000E+04   0.719654E-05   0.325631E-04   0.386914E+00   0.483974E+01
   0.115000E+04   0.786010E-05   0.340577E-04   0.386925E+00   0.483974E+01
   0.116000E+04   0.854664E-05   0.356004E-04   0.386936E+00   0.483974E+01
   0.117000E+04   0.925544E-05   0.371898E-04   0.386947E+00   0.483974E+01
   0.118000E+04   0.998580E-05   0.388247E-04   0.386958E+00   0.483974E+01
   0.119000E+04   0.107370E-04   0.405037E-04   0.386968E+00   0.483974E+01
   0.120000E+04   0.115085E-04   0.422256E-04   0.386979E+00   0.483974E+01
   0.121000E+04   0.122994E-04   0.439890E-04   0.386989E+00   0.483974E+01
   0.122000E+04   0.131092E-04   0.457928E-04   0.386999E+00   0.483974E+01
   0.123000E+04   0.139373E-04   0.476355E-04   0.387009E+00   0.483974E+01
   0.124000E+04   0.147828E-04   0.495161E-04   0.387019E+00   0.483974E+01
   0.125000E+04   0.156454E-04   0.514331E-04   0.387029E+00   0.483974E+01
   0.126000E+04   0.165242E-04   0.533855E-04   0.387039E+00   0.483974E+01
   0.127000E+04   0.174188E-04   0.553721E-04   0.387048E+00   0.483974E+01
   0.128000E+04   0.183285E-04   0.573916E-04   0.387058E+00   0.483974E+01
   0.129000E+04   0.192527E-04   0.594429E-04   0.387067E+00   0.483974E+01
   0.130000E+04   0.201909E-04   0.615249E-04   0.387076E+00   0.483974E+01
   0.131000E+04   0.211425E-04   0.636364E-04   0.387085E+00   0.483974E+01
   0.132000E+04   0.221069E-04   0.657764E-04   0.387094E+00   0.483974E+01
   0.133000E+04   0.230836E-04   0.679437E-04   0.387103E+00   0.483974E+01
   0.134000E+04   0.240720E-04   0.701373E-04   0.387112E+00   0.483974E+01
   0.135000E+04   0.250716E-04   0.723560E-04   0.387121E+00   0.483974E+01
   0.136000E+04   0.260820E-04   0.745989E-04   0.387130E+00   0.483974E+01
   0.137000E+04   0.271025E-04   0.768649E-04   0.387138E+00   0.483974E+01
   0.138000E+04   0.281328E-04   0.791528E-04   0.387147E+00   0.483974E+01
   0.139000E+04   0.291723E-04   0.814618E-04   0.387155E+00   0.483974E+01
   0.140000E+04   0.302206E-04   0.837908E-04   0.387163E+00   0.483974E+01
   0.141000E+04   0.312772E-04   0.861389E-04   0.387171E+00   0.483974E+01
   0.142000E+04   0.323417E-04   0.885051E-04   0.387179E+00   0.483974E+01
   0.143000E+04   0.334137E-04   0.908885E-04   0.387187E+00   0.483974E+01
   0.144000E+04   0.344929E-04   0.932882E-04   0.387195E+00   0.483974E+01
   0.145000E+04   0.355788E-04   0.957034E-04   0.387203E+00   0.483974E+01
   0.146000E+04   0.366710E-04   0.981333E-04   0.387211E+00   0.483974E+01
   0.147000E+04   0.377693E-04   0.100577E-03   0.387218E+00   0.483974E+01
   0.148000E+04   0.388734E-04   0.103034E-03   0.387226E+00   0.483974E+01
   0.149000E+04   0.399829E-04   0.105504E-03   0.387233E+00   0.483974E+01
   0.150000E+04   0.410975E-04   0.107985E-03   0.387241E+00   0.483974E+01
   0.151000E+04   0.422171E-04   0.110478E-03   0.387248E+00   0.483974E+01
   0.152000E+04   0.433412E-04   0.112982E-03   0.387255E+00   0.483974E+01
   0.153000E+04   0.444698E-04   0.115496E-03   0.387263E+00   0.483974E+01
   0.154000E+04   0.456026E-04   0.118020E-03   0.387270E+00   0.483974E+01
   0.155000E+04   0.467394E-04   0.120553E-03   0.387277E+00   0.483974E+01
   0.156000E+04   0.478799E-04   0.123095E-03   0.387284E+00   0.483974E+01
   0.157000E+04   0.490241E-04   0.125646E-03   0.387291E+00   0.483974E+01
   0.158000E+04   0.501717E-04   0.128206E-03   0.387297E+00   0.483974E+01
   0.159000E+04   0.513225E-04   0.130773E-03   0.387304E+00   0.483974E+01
   0.160000E+04   0.524764E-04   0.133349E-03   0.387311E+00   0.483974E+01
   0.161000E+04   0.536333E-04   0.135932E-03   0.387317E+00   0.483974E+01
   0.162000E+04   0.547930E-04   0.138522E-03   0.387324E+00   0.483974E+01
   0.163000E+04   0.559554E-04   0.141120E-03   0.387330E+00   0.483974E+01
   0.164000E+04   0.571203E-04   0.143725E-03   0.387337E+00   0.483974E+01
   0.165000E+04   0.582876E-04   0.146336E-03   0.387343E+00   0.483974E+01
   0.166000E+04   0.594573E-04   0.148955E-03   0.387349E+00   0.483974E+01
   0.167000E+04   0.606290E-04   0.151580E-03   0.387356E+00   0.483974E+01
   0.168000E+04   0.618028E-04   0.154211E-03   0.387363E+00   0.483974E+01
   0.169000E+04   0.629785E-04   0.156849E-03   0.387369E+00   0.483974E+01
   0.170000E+04   0.641562E-04   0.159494E-03   0.387375E+00   0.483974E+01
   0.171000E+04   0.653320E-04   0.162137E-03   0.387392E+00   0.483974E+01
   0.172000E+04   0.665126E-04   0.164792E-03   0.387389E+00   0.483974E+01
   0.173000E+04   0.676920E-04   0.167448E-03   0.387401E+00   0.483974E+01
   0.174000E+04   0.688713E-04   0.170106E-03   0.387419E+00   0.483974E+01
   0.175000E+04   0.700504E-04   0.172766E-03   0.387435E+00   0.483974E+01
   0.176000E+04   0.712315E-04   0.175433E-03   0.387435E+00   0.483974E+01
   0.177000E+04   0.724143E-04   0.178107E-03   0.387437E+00   0.483974E+01
   0.178000E+04   0.735993E-04   0.180790E-03   0.387456E+00   0.483974E+01
   0.179000E+04   0.747862E-04   0.183480E-03   0.387492E+00   0.483974E+01
   0.180000E+04   0.759750E-04   0.186177E-03   0.387507E+00   0.483974E+01
   0.181000E+04   0.771647E-04   0.188880E-03   0.387491E+00   0.483974E+01
   0.182000E+04   0.783551E-04   0.191587E-03   0.387482E+00   0.483974E+01
   0.183000E+04   0.795471E-04   0.194301E-03   0.387493E+00   0.483974E+01
   0.184000E+04   0.807410E-04   0.197023E-03   0.387522E+00   0.483974E+01
   0.185000E+04   0.819376E-04   0.199754E-03   0.387540E+00   0.483974E+01
   0.186000E+04   0.831367E-04   0.202494E-03   0.387542E+00   0.483974E+01
   0.187000E+04   0.843363E-04   0.205237E-03   0.387537E+00   0.483974E+01
   0.188000E+04   0.855356E-04   0.207981E-03   0.387530E+00   0.483974E+01
   0.189000E+04   0.867355E-04   0.210729E-03   0.387534E+00   0.483974E+01
   0.190000E+04   0.879388E-04   0.213487E-03   0.387545E+00   0.483974E+01
   0.191000E+04   0.891462E-04   0.216257E-03   0.387557E+00   0.483974E+01
   0.192000E+04   0.903556E-04   0.219032E-03   0.387568E+00   0.483974E+01
   0.193000E+04   0.915652E-04   0.221810E-03   0.387574E+00   0.483974E+01
   0.194000E+04   0.927745E-04   0.224587E-03   0.387568E+00   0.483974E+01
   0.195000E+04   0.939853E-04   0.227370E-03   0.387557E+00   0.483974E+01
   0.196000E+04   0.951993E-04   0.230161E-03   0.387558E+00   0.483974E+01
   0.197000E+04   0.964159E-04   0.232960E-03   0.387576E+00   0.483974E+01
   0.198000E+04   0.976333E-04   0.235761E-03   0.387597E+00   0.483974E+01
   0.199000E+04   0.988507E-04   0.238564E-03   0.387605E+00   0.483974E+01
   0.200000E+04   0.100068E-03   0.241367E-03   0.387593E+00   0.483974E+01
   0.201000E+04   0.101286E-03   0.244171E-03   0.387576E+00   0.483974E+01
   0.202000E+04   0.102502E-03   0.246974E-03   0.387576E+00   0.483974E+01
   0.203000E+04   0.103719E-03   0.249778E-03   0.387598E+00   0.483974E+01
   0.204000E+04   0.104935E-03   0.252583E-03   0.387618E+00   0.483974E+01
   0.205000E+04   0.106151E-03   0.255389E-03   0.387622E+00   0.483974E+01
   0.206000E+04   0.107366E-03   0.258192E-03   0.387617E+00   0.483974E+01
   0.207000E+04   0.108577E-03   0.260986E-03   0.387607E+00   0.483974E+01
   0.208000E+04   0.109783E-03   0.263770E-03   0.387606E+00   0.483974E+01
   0.209000E+04   0.110986E-03   0.266548E-03   0.387613E+00   0.483974E+01
   0.210000E+04   0.112188E-03   0.269326E-03   0.387624E+00   0.483974E+01
   0.211000E+04   0.113388E-03   0.272098E-03   0.387634E+00   0.483974E+01
   0.212000E+04   0.114583E-03   0.274860E-03   0.387641E+00   0.483974E+01
   0.213000E+04   0.115770E-03   0.277606E-03   0.387643E+00   0.483974E+01
   0.214000E+04   0.116952E-03   0.280337E-03   0.387632E+00   0.483974E+01
   0.215000E+04   0.118128E-03   0.283058E-03   0.387622E+00   0.483974E+01
   0.216000E+04   0.119300E-03   0.285770E-03   0.387631E+00   0.483974E+01
   0.217000E+04   0.120467E-03   0.288469E-03   0.387649E+00   0.483974E+01
   0.218000E+04   0.121625E-03   0.291150E-03   0.387666E+00   0.483974E+01
   0.219000E+04   0.122776E-03   0.293815E-03   0.387666E+00   0.483974E+01
   0.220000E+04   0.123920E-03   0.296462E-03   0.387649E+00   0.483974E+01
   0.221000E+04   0.125055E-03   0.299090E-03   0.387638E+00   0.483974E+01
   0.222000E+04   0.126182E-03   0.301700E-03   0.387645E+00   0.483974E+01
   0.223000E+04   0.127301E-03   0.304291E-03   0.387667E+00   0.483974E+01
   0.224000E+04   0.128413E-03   0.306864E-03   0.387678E+00   0.483974E+01
   0.225000E+04   0.129516E-03   0.309419E-03   0.387676E+00   0.483974E+01
   0.226000E+04   0.130610E-03   0.311951E-03   0.387669E+00   0.483974E+01
   0.227000E+04   0.131692E-03   0.314456E-03   0.387662E+00   0.483974E+01
   0.228000E+04   0.132764E-03   0.316935E-03   0.387665E+00   0.483974E+01
   0.229000E+04   0.133827E-03   0.319396E-03   0.387673E+00   0.483974E+01
   0.230000E+04   0.134883E-03   0.321839E-03   0.387681E+00   0.483974E+01
   0.231000E+04   0.135929E-03   0.324260E-03   0.387689E+00   0.483974E+01
   0.232000E+04   0.136964E-03   0.326652E-03   0.387694E+00   0.483974E+01
   0.233000E+04   0.137985E-03   0.329013E-03   0.387689E+00   0.483974E+01
   0.234000E+04   0.138996E-03   0.331349E-03   0.387677E+00   0.483974E+01
   0.235000E+04   0.139999E-03   0.333664E-03   0.387673E+00   0.483974E+01
   0.236000E+04   0.140992E-03   0.335958E-03   0.387687E+00   0.483974E+01
   0.237000E+04   0.141975E-03   0.338226E-03   0.387706E+00   0.483974E+01
   0.238000E+04   0.142946E-03   0.340467E-03   0.387716E+00   0.483974E+01
   0.239000E+04   0.143906E-03   0.342680E-03   0.387707E+00   0.483974E+01
   0.240000E+04   0.144855E-03   0.344866E-03   0.387688E+00   0.483974E+01
   0.241000E+04   0.145792E-03   0.347025E-03   0.387682E+00   0.483974E+01
   0.242000E+04   0.146719E-03   0.349159E-03   0.387697E+00   0.483974E+01
   0.243000E+04   0.147636E-03   0.351269E-03   0.387718E+00   0.483974E+01
   0.244000E+04   0.148544E-03   0.353356E-03   0.387724E+00   0.483974E+01
   0.245000E+04   0.149443E-03   0.355420E-03   0.387718E+00   0.483974E+01
   0.246000E+04   0.150329E-03   0.357453E-03   0.387709E+00   0.483974E+01
   0.247000E+04   0.151202E-03   0.359455E-03   0.387704E+00   0.483974E+01
   0.248000E+04   0.152064E-03   0.361430E-03   0.387707E+00   0.483974E+01
   0.249000E+04   0.152918E-03   0.363386E-03   0.387716E+00   0.483974E+01
   0.250000E+04   0.153764E-03   0.365323E-03   0.387723E+00   0.483974E+01
   0.251000E+04   0.154601E-03   0.367235E-03   0.387731E+00   0.483974E+01
   0.252000E+04   0.155425E-03   0.369117E-03   0.387735E+00   0.483974E+01
   0.253000E+04   0.156236E-03   0.370969E-03   0.387726E+00   0.483974E+01
   0.254000E+04   0.157039E-03   0.372798E-03   0.387713E+00   0.483974E+01
   0.255000E+04   0.157833E-03   0.374608E-03   0.387713E+00   0.483974E+01
   0.256000E+04   0.158619E-03   0.376397E-03   0.387728E+00   0.483974E+01
   0.257000E+04   0.159395E-03   0.378162E-03   0.387746E+00   0.483974E+01
   0.258000E+04   0.160160E-03   0.379901E-03   0.387752E+00   0.483974E+01
   0.259000E+04   0.160916E-03   0.381618E-03   0.387739E+00   0.483974E+01
   0.260000E+04   0.161663E-03   0.383311E-03   0.387721E+00   0.483974E+01
   0.261000E+04   0.162400E-03   0.384981E-03   0.387721E+00   0.483974E+01
   0.262000E+04   0.163128E-03   0.386630E-03   0.387740E+00   0.483974E+01
   0.263000E+04   0.163849E-03   0.388260E-03   0.387755E+00   0.483974E+01
   0.264000E+04   0.164562E-03   0.389872E-03   0.387755E+00   0.483974E+01
   0.265000E+04   0.165267E-03   0.391463E-03   0.387748E+00   0.483974E+01
   0.266000E+04   0.165961E-03   0.393029E-03   0.387739E+00   0.483974E+01
   0.267000E+04   0.166644E-03   0.394569E-03   0.387739E+00   0.483974E+01
   0.268000E+04   0.167320E-03   0.396092E-03   0.387744E+00   0.483974E+01
   0.269000E+04   0.167991E-03   0.397603E-03   0.387751E+00   0.483974E+01
   0.270000E+04   0.168656E-03   0.399098E-03   0.387758E+00   0.483974E+01
   0.271000E+04   0.169312E-03   0.400573E-03   0.387764E+00   0.483974E+01
   0.272000E+04   0.169957E-03   0.402022E-03   0.387764E+00   0.483974E+01
   0.273000E+04   0.170594E-03   0.403449E-03   0.387752E+00   0.483974E+01
   0.274000E+04   0.171224E-03   0.404862E-03   0.387741E+00   0.483974E+01
   0.275000E+04   0.171849E-03   0.406262E-03   0.387748E+00   0.483974E+01
   0.276000E+04   0.172467E-03   0.407648E-03   0.387766E+00   0.483974E+01
   0.277000E+04   0.173078E-03   0.409014E-03   0.387782E+00   0.483974E+01
   0.278000E+04   0.173681E-03   0.410363E-03   0.387779E+00   0.483974E+01
   0.279000E+04   0.174276E-03   0.411694E-03   0.387761E+00   0.483974E+01
   0.280000E+04   0.174865E-03   0.413007E-03   0.387748E+00   0.483974E+01
   0.281000E+04   0.175446E-03   0.414303E-03   0.387753E+00   0.483974E+01
   0.282000E+04   0.176020E-03   0.415586E-03   0.387774E+00   0.483974E+01
   0.283000E+04   0.176590E-03   0.416857E-03   0.387785E+00   0.483974E+01
   0.284000E+04   0.177156E-03   0.418118E-03   0.387783E+00   0.483974E+01
   0.285000E+04   0.177713E-03   0.419360E-03   0.387776E+00   0.483974E+01
   0.286000E+04   0.178262E-03   0.420581E-03   0.387767E+00   0.483974E+01
   0.287000E+04   0.178803E-03   0.421782E-03   0.387767E+00   0.483974E+01
   0.288000E+04   0.179339E-03   0.422975E-03   0.387771E+00   0.483974E+01
   0.289000E+04   0.179873E-03   0.424161E-03   0.387778E+00   0.483974E+01
   0.290000E+04   0.180402E-03   0.425335E-03   0.387788E+00   0.483974E+01
   0.291000E+04   0.180923E-03   0.426492E-03   0.387794E+00   0.483974E+01
   0.292000E+04   0.181435E-03   0.427629E-03   0.387791E+00   0.483974E+01
   0.293000E+04   0.181942E-03   0.428750E-03   0.387775E+00   0.483974E+01
   0.294000E+04   0.182445E-03   0.429863E-03   0.387767E+00   0.483974E+01
   0.295000E+04   0.182943E-03   0.430966E-03   0.387778E+00   0.483974E+01
   0.296000E+04   0.183436E-03   0.432057E-03   0.387797E+00   0.483974E+01
   0.297000E+04   0.183923E-03   0.433134E-03   0.387808E+00   0.483974E+01
   0.298000E+04   0.184405E-03   0.434198E-03   0.387801E+00   0.483974E+01
   0.299000E+04   0.184881E-03   0.435249E-03   0.387782E+00   0.483974E+01
   0.300000E+04   0.185351E-03   0.436285E-03   0.387774E+00   0.483974E+01
   0.301000E+04   0.185816E-03   0.437309E-03   0.387786E+00   0.483974E+01
   0.302000E+04   0.186277E-03   0.438324E-03   0.387804E+00   0.483974E+01
   0.303000E+04   0.186735E-03   0.439332E-03   0.387809E+00   0.483974E+01
   0.304000E+04   0.187189E-03   0.440330E-03   0.387804E+00   0.483974E+01
   0.305000E+04   0.187636E-03   0.441312E-03   0.387797E+00   0.483974E+01
   0.306000E+04   0.188076E-03   0.442276E-03   0.387792E+00   0.483974E+01
   0.307000E+04   0.188511E-03   0.443229E-03   0.387793E+00   0.483974E+01
   0.308000E+04   0.188944E-03   0.444178E-03   0.387799E+00   0.483974E+01
   0.309000E+04   0.189375E-03   0.445123E-03   0.387806E+00   0.483974E+01
   0.310000E+04   0.189802E-03   0.446058E-03   0.387814E+00   0.483974E+01
   0.311000E+04   0.190223E-03   0.446976E-03   0.387818E+00   0.483974E+01
   0.312000E+04   0.190637E-03   0.447878E-03   0.387809E+00   0.483974E+01
   0.313000E+04   0.191047E-03   0.448772E-03   0.387793E+00   0.483974E+01
   0.314000E+04   0.191455E-03   0.449661E-03   0.387791E+00   0.483974E+01
   0.315000E+04   0.191861E-03   0.450545E-03   0.387807E+00   0.483974E+01
   0.316000E+04   0.192262E-03   0.451419E-03   0.387827E+00   0.483974E+01
   0.317000E+04   0.192659E-03   0.452282E-03   0.387832E+00   0.483974E+01
   0.318000E+04   0.193053E-03   0.453137E-03   0.387818E+00   0.483974E+01
   0.319000E+04   0.193442E-03   0.453980E-03   0.387800E+00   0.483974E+01
   0.320000E+04   0.193826E-03   0.454813E-03   0.387796E+00   0.483974E+01
   0.321000E+04   0.194207E-03   0.455638E-03   0.387813E+00   0.483974E+01
   0.322000E+04   0.194587E-03   0.456460E-03   0.387828E+00   0.483974E+01
   0.323000E+04   0.194965E-03   0.457280E-03   0.387830E+00   0.483974E+01
   0.324000E+04   0.195340E-03   0.458092E-03   0.387826E+00   0.483974E+01
   0.325000E+04   0.195710E-03   0.458890E-03   0.387818E+00   0.483974E+01
   0.326000E+04   0.196073E-03   0.459674E-03   0.387814E+00   0.483974E+01
   0.327000E+04   0.196434E-03   0.460452E-03   0.387814E+00   0.483974E+01
   0.328000E+04   0.196795E-03   0.461232E-03   0.387819E+00   0.483974E+01
   0.329000E+04   0.197155E-03   0.462011E-03   0.387828E+00   0.483974E+01
   0.330000E+04   0.197512E-03   0.462782E-03   0.387837E+00   0.483974E+01
   0.331000E+04   0.197863E-03   0.463539E-03   0.387840E+00   0.483974E+01
   0.332000E+04   0.198211E-03   0.464287E-03   0.387827E+00   0.483974E+01
   0.333000E+04   0.198556E-03   0.465031E-03   0.387812E+00   0.483974E+01
   0.334000E+04   0.198901E-03   0.465774E-03   0.387815E+00   0.483974E+01
   0.335000E+04   0.199243E-03   0.466513E-03   0.387833E+00   0.483974E+01
   0.336000E+04   0.199582E-03   0.467245E-03   0.387849E+00   0.483974E+01
   0.337000E+04   0.199919E-03   0.467972E-03   0.387849E+00   0.483974E+01
   0.338000E+04   0.200254E-03   0.468693E-03   0.387832E+00   0.483974E+01
   0.339000E+04   0.200585E-03   0.469406E-03   0.387819E+00   0.483974E+01
   0.340000E+04   0.200913E-03   0.470113E-03   0.387822E+00   0.483974E+01
   0.341000E+04   0.201239E-03   0.470816E-03   0.387840E+00   0.483974E+01
   0.342000E+04   0.201565E-03   0.471520E-03   0.387849E+00   0.483974E+01
   0.343000E+04   0.201890E-03   0.472223E-03   0.387847E+00   0.483974E+01
   0.344000E+04   0.202212E-03   0.472919E-03   0.387843E+00   0.483974E+01
   0.345000E+04   0.202529E-03   0.473602E-03   0.387836E+00   0.483974E+01
   0.346000E+04   0.202841E-03   0.474276E-03   0.387834E+00   0.483974E+01
   0.347000E+04   0.203154E-03   0.474952E-03   0.387835E+00   0.483974E+01
   0.348000E+04   0.203468E-03   0.475632E-03   0.387841E+00   0.483974E+01
   0.349000E+04   0.203781E-03   0.476311E-03   0.387851E+00   0.483974E+01
   0.350000E+04   0.204090E-03   0.476980E-03   0.387859E+00   0.483974E+01
   0.351000E+04   0.204394E-03   0.477639E-03   0.387855E+00   0.483974E+01
   0.352000E+04   0.204695E-03   0.478291E-03   0.387838E+00   0.483974E+01
   0.353000E+04   0.204996E-03   0.478943E-03   0.387827E+00   0.483974E+01
   0.354000E+04   0.205297E-03   0.479595E-03   0.387838E+00   0.483974E+01
   0.355000E+04   0.205595E-03   0.480244E-03   0.387859E+00   0.483974E+01
   0.356000E+04   0.205892E-03   0.480889E-03   0.387871E+00   0.483974E+01
   0.357000E+04   0.206187E-03   0.481531E-03   0.387864E+00   0.483974E+01
   0.358000E+04   0.206479E-03   0.482166E-03   0.387844E+00   0.483974E+01
   0.359000E+04   0.206768E-03   0.482794E-03   0.387834E+00   0.483974E+01
   0.360000E+04   0.207053E-03   0.483415E-03   0.387842E+00   0.483974E+01
   0.361000E+04   0.207338E-03   0.484036E-03   0.387859E+00   0.483974E+01
   0.362000E+04   0.207624E-03   0.484660E-03   0.387866E+00   0.483974E+01
   0.363000E+04   0.207909E-03   0.485282E-03   0.387864E+00   0.483974E+01
   0.364000E+04   0.208190E-03   0.485897E-03   0.387860E+00   0.483974E+01
   0.365000E+04   0.208466E-03   0.486498E-03   0.387854E+00   0.483974E+01
   0.366000E+04   0.208739E-03   0.487093E-03   0.387849E+00   0.483974E+01
   0.367000E+04   0.209012E-03   0.487690E-03   0.387850E+00   0.483974E+01
   0.368000E+04   0.209286E-03   0.488292E-03   0.387858E+00   0.483974E+01
   0.369000E+04   0.209559E-03   0.488889E-03   0.387868E+00   0.483974E+01
   0.370000E+04   0.209827E-03   0.489477E-03   0.387877E+00   0.483974E+01
   0.371000E+04   0.210091E-03   0.490055E-03   0.387870E+00   0.483974E+01
   0.372000E+04   0.210354E-03   0.490629E-03   0.387851E+00   0.483974E+01
   0.373000E+04   0.210615E-03   0.491203E-03   0.387845E+00   0.483974E+01
   0.374000E+04   0.210876E-03   0.491776E-03   0.387858E+00   0.483974E+01
   0.375000E+04   0.211135E-03   0.492344E-03   0.387878E+00   0.483974E+01
   0.376000E+04   0.211391E-03   0.492907E-03   0.387884E+00   0.483974E+01
   0.377000E+04   0.211646E-03   0.493467E-03   0.387873E+00   0.483974E+01
   0.378000E+04   0.211897E-03   0.494020E-03   0.387856E+00   0.483974E+01
   0.379000E+04   0.212146E-03   0.494565E-03   0.387851E+00   0.483974E+01
   0.380000E+04   0.212392E-03   0.495105E-03   0.387865E+00   0.483974E+01
   0.381000E+04   0.212637E-03   0.495646E-03   0.387879E+00   0.483974E+01
   0.382000E+04   0.212884E-03   0.496189E-03   0.387881E+00   0.483974E+01
   0.383000E+04   0.213128E-03   0.496728E-03   0.387878E+00   0.483974E+01
   0.384000E+04   0.213368E-03   0.497256E-03   0.387871E+00   0.483974E+01
   0.385000E+04   0.213602E-03   0.497771E-03   0.387867E+00   0.483974E+01
   0.386000E+04   0.213835E-03   0.498283E-03   0.387864E+00   0.483974E+01
   0.387000E+04   0.214069E-03   0.498799E-03   0.387867E+00   0.483974E+01
   0.388000E+04   0.214304E-03   0.499318E-03   0.387878E+00   0.483974E+01
   0.389000E+04   0.214536E-03   0.499829E-03   0.387888E+00   0.483974E+01
   0.390000E+04   0.214763E-03   0.500330E-03   0.387893E+00   0.483974E+01
   0.391000E+04   0.214986E-03   0.500822E-03   0.387878E+00   0.483974E+01
   0.392000E+04   0.215209E-03   0.501311E-03   0.387860E+00   0.483974E+01
   0.393000E+04   0.215430E-03   0.501799E-03   0.387860E+00   0.483974E+01