title="breakthrough data set at     5 wells"
variables="time(days)","cavg","cpk","upk","zswi"
zone i=     1295
   0.100000E+02   0.128173E-09   0.196883E-09   0.447385E+00   0.485330E+01
   0.200000E+02   0.277907E-09   0.445157E-09   0.369938E+00   0.483213E+01
   0.300000E+02   0.532644E-09   0.871177E-09   0.369616E+00   0.483213E+01
   0.400000E+02   0.934815E-09   0.154726E-08   0.369598E+00   0.483213E+01
   0.500000E+02   0.152888E-08   0.255077E-08   0.369570E+00   0.483213E+01
   0.600000E+02   0.234764E-08   0.393940E-08   0.369619E+00   0.483213E+01
   0.700000E+02   0.339721E-08   0.572649E-08   0.369672E+00   0.483213E+01
   0.800000E+02   0.464047E-08   0.786988E-08   0.369746E+00   0.483213E+01
   0.900000E+02   0.595375E-08   0.102107E-07   0.369808E+00   0.483213E+01
   0.100000E+03   0.707158E-08   0.124169E-07   0.369875E+00   0.483213E+01
   0.110000E+03   0.751779E-08   0.139071E-07   0.369949E+00   0.483213E+01
   0.120000E+03   0.648214E-08   0.135996E-07   0.370027E+00   0.483213E+01
   0.130000E+03   0.264189E-08   0.944800E-08   0.370112E+00   0.483213E+01
   0.140000E+03  -0.604842E-08   0.143692E-08   0.370190E+00   0.483213E+01
   0.150000E+03  -0.224747E-07  -0.796102E-09   0.370285E+00   0.483213E+01
   0.160000E+03  -0.503705E-07  -0.433494E-08   0.370401E+00   0.483213E+01
   0.170000E+03  -0.942890E-07  -0.944100E-08   0.370511E+00   0.483213E+01
   0.180000E+03  -0.159493E-06  -0.163345E-07   0.370587E+00   0.483213E+01
   0.190000E+03  -0.251822E-06  -0.252187E-07   0.370683E+00   0.483213E+01
   0.200000E+03  -0.377481E-06  -0.362317E-07   0.370792E+00   0.483213E+01
   0.210000E+03  -0.543102E-06  -0.495012E-07   0.370900E+00   0.483213E+01
   0.220000E+03  -0.755710E-06  -0.651178E-07   0.370976E+00   0.483213E+01
   0.230000E+03  -0.102259E-05  -0.831949E-07   0.371051E+00   0.483213E+01
   0.240000E+03  -0.135077E-05  -0.103773E-06   0.371147E+00   0.483213E+01
   0.250000E+03  -0.174749E-05  -0.126945E-06   0.371251E+00   0.483213E+01
   0.260000E+03  -0.222033E-05  -0.152788E-06   0.371317E+00   0.483213E+01
   0.270000E+03  -0.277651E-05  -0.181378E-06   0.371383E+00   0.483213E+01
   0.280000E+03  -0.342252E-05  -0.212723E-06   0.371464E+00   0.483213E+01
   0.290000E+03  -0.416425E-05  -0.246849E-06   0.371566E+00   0.483213E+01
   0.300000E+03  -0.500838E-05  -0.283851E-06   0.371641E+00   0.483213E+01
   0.310000E+03  -0.596054E-05  -0.323642E-06   0.371689E+00   0.483213E+01
   0.320000E+03  -0.702532E-05  -0.366128E-06   0.371756E+00   0.483213E+01
   0.330000E+03  -0.820609E-05  -0.411110E-06   0.371828E+00   0.483213E+01
   0.340000E+03  -0.950598E-05  -0.458520E-06   0.371923E+00   0.483213E+01
   0.350000E+03  -0.109292E-04  -0.508335E-06   0.371988E+00   0.483213E+01
   0.360000E+03  -0.124779E-04  -0.560177E-06   0.372037E+00   0.483213E+01
   0.370000E+03  -0.141535E-04  -0.613756E-06   0.372101E+00   0.483213E+01
   0.380000E+03  -0.159567E-04  -0.668661E-06   0.372158E+00   0.483213E+01
   0.390000E+03  -0.178884E-04  -0.724880E-06   0.372231E+00   0.483213E+01
   0.400000E+03  -0.199492E-04  -0.782228E-06   0.372303E+00   0.483213E+01
   0.410000E+03  -0.221382E-04  -0.840274E-06   0.372359E+00   0.483213E+01
   0.420000E+03  -0.244562E-04  -0.898996E-06   0.372413E+00   0.483213E+01
   0.430000E+03  -0.269025E-04  -0.958090E-06   0.372462E+00   0.483213E+01
   0.440000E+03  -0.294758E-04  -0.101749E-05   0.372513E+00   0.483213E+01
   0.450000E+03  -0.321751E-04  -0.107715E-05   0.372577E+00   0.483213E+01
   0.460000E+03  -0.349986E-04  -0.113727E-05   0.372632E+00   0.483213E+01
   0.470000E+03  -0.379426E-04  -0.119799E-05   0.372699E+00   0.483213E+01
   0.480000E+03  -0.410079E-04  -0.125979E-05   0.372749E+00   0.483213E+01
   0.490000E+03  -0.441905E-04  -0.132246E-05   0.372786E+00   0.483213E+01
   0.500000E+03  -0.474895E-04  -0.138642E-05   0.372827E+00   0.483213E+01
   0.510000E+03  -0.509003E-04  -0.145193E-05   0.372882E+00   0.483213E+01
   0.520000E+03  -0.544156E-04  -0.151908E-05   0.372943E+00   0.483213E+01
   0.530000E+03  -0.580322E-04  -0.158850E-05   0.373009E+00   0.483213E+01
   0.540000E+03  -0.617507E-04  -0.166088E-05   0.373043E+00   0.483213E+01
   0.550000E+03  -0.655667E-04  -0.173658E-05   0.373069E+00   0.483213E+01
   0.560000E+03  -0.694774E-04  -0.181624E-05   0.373109E+00   0.483213E+01
   0.570000E+03  -0.734741E-04  -0.189994E-05   0.373159E+00   0.483213E+01
   0.580000E+03  -0.775491E-04  -0.198807E-05   0.373229E+00   0.483213E+01
   0.590000E+03  -0.817030E-04  -0.208164E-05   0.373269E+00   0.483213E+01
   0.600000E+03  -0.859309E-04  -0.218084E-05   0.373285E+00   0.483213E+01
   0.610000E+03  -0.902299E-04  -0.228643E-05   0.373315E+00   0.483213E+01
   0.620000E+03  -0.945909E-04  -0.239827E-05   0.373358E+00   0.483213E+01
   0.630000E+03  -0.990060E-04  -0.251661E-05   0.373418E+00   0.483213E+01
   0.640000E+03  -0.103473E-03  -0.264236E-05   0.373471E+00   0.483213E+01
   0.650000E+03  -0.107989E-03  -0.277554E-05   0.373494E+00   0.483213E+01
   0.660000E+03  -0.112548E-03  -0.291691E-05   0.373511E+00   0.483213E+01
   0.670000E+03  -0.117148E-03  -0.306663E-05   0.373543E+00   0.483213E+01
   0.680000E+03  -0.121780E-03  -0.322465E-05   0.373583E+00   0.483213E+01
   0.690000E+03  -0.126433E-03  -0.339077E-05   0.373643E+00   0.483213E+01
   0.700000E+03  -0.131110E-03  -0.356580E-05   0.373683E+00   0.483213E+01
   0.710000E+03  -0.135803E-03  -0.374939E-05   0.373700E+00   0.483213E+01
   0.720000E+03  -0.140513E-03  -0.394238E-05   0.373716E+00   0.483213E+01
   0.730000E+03  -0.145233E-03  -0.414448E-05   0.373749E+00   0.483213E+01
   0.740000E+03  -0.149954E-03  -0.435525E-05   0.373785E+00   0.483213E+01
   0.750000E+03  -0.154670E-03  -0.457462E-05   0.373837E+00   0.483213E+01
   0.760000E+03  -0.159381E-03  -0.480296E-05   0.373865E+00   0.483213E+01
   0.770000E+03  -0.164082E-03  -0.503996E-05   0.373880E+00   0.483213E+01
   0.780000E+03  -0.168771E-03  -0.528583E-05   0.373898E+00   0.483213E+01
   0.790000E+03  -0.173442E-03  -0.554019E-05   0.373928E+00   0.483213E+01
   0.800000E+03  -0.178084E-03  -0.580184E-05   0.373963E+00   0.483213E+01
   0.810000E+03  -0.182694E-03  -0.607095E-05   0.374009E+00   0.483213E+01
   0.820000E+03  -0.187275E-03  -0.634763E-05   0.374027E+00   0.483213E+01
   0.830000E+03  -0.191819E-03  -0.663165E-05   0.374043E+00   0.483213E+01
   0.840000E+03  -0.196328E-03  -0.692299E-05   0.374059E+00   0.483213E+01
   0.850000E+03  -0.200795E-03  -0.722120E-05   0.374087E+00   0.483213E+01
   0.860000E+03  -0.205209E-03  -0.752468E-05   0.374122E+00   0.483213E+01
   0.870000E+03  -0.209571E-03  -0.783376E-05   0.374158E+00   0.483213E+01
   0.880000E+03  -0.213881E-03  -0.814789E-05   0.374170E+00   0.483213E+01
   0.890000E+03  -0.218135E-03  -0.846725E-05   0.374186E+00   0.483213E+01
   0.900000E+03  -0.222332E-03  -0.879131E-05   0.374208E+00   0.483213E+01
   0.910000E+03  -0.226470E-03  -0.911963E-05   0.374232E+00   0.483213E+01
   0.920000E+03  -0.230541E-03  -0.945149E-05   0.374267E+00   0.483213E+01
   0.930000E+03  -0.234550E-03  -0.978719E-05   0.374287E+00   0.483213E+01
   0.940000E+03  -0.238489E-03  -0.101255E-04   0.374298E+00   0.483213E+01
   0.950000E+03  -0.242360E-03  -0.104666E-04   0.374311E+00   0.483213E+01
   0.960000E+03  -0.246161E-03  -0.108097E-04   0.374338E+00   0.483213E+01
   0.970000E+03  -0.249884E-03  -0.111537E-04   0.374359E+00   0.483213E+01
   0.980000E+03  -0.253527E-03  -0.114982E-04   0.374390E+00   0.483213E+01
   0.990000E+03  -0.257097E-03  -0.118437E-04   0.374405E+00   0.483213E+01
   0.100000E+04  -0.260590E-03  -0.121897E-04   0.374415E+00   0.483213E+01
   0.101000E+04  -0.264008E-03  -0.125363E-04   0.374427E+00   0.483213E+01
   0.102000E+04  -0.267347E-03  -0.128825E-04   0.374451E+00   0.483213E+01
   0.103000E+04  -0.270601E-03  -0.132272E-04   0.374472E+00   0.483213E+01
   0.104000E+04  -0.273772E-03  -0.135703E-04   0.374495E+00   0.483213E+01
   0.105000E+04  -0.276866E-03  -0.139120E-04   0.374505E+00   0.483213E+01
   0.106000E+04  -0.279876E-03  -0.142520E-04   0.374515E+00   0.483213E+01
   0.107000E+04  -0.282806E-03  -0.145900E-04   0.374531E+00   0.483213E+01
   0.108000E+04  -0.285656E-03  -0.149257E-04   0.374553E+00   0.483213E+01
   0.109000E+04  -0.288418E-03  -0.152579E-04   0.374574E+00   0.483213E+01
   0.110000E+04  -0.291101E-03  -0.155871E-04   0.374587E+00   0.483213E+01
   0.111000E+04  -0.293702E-03  -0.159127E-04   0.374590E+00   0.483213E+01
   0.112000E+04  -0.296220E-03  -0.162347E-04   0.374598E+00   0.483213E+01
   0.113000E+04  -0.298653E-03  -0.165522E-04   0.374622E+00   0.483213E+01
   0.114000E+04  -0.301003E-03  -0.168650E-04   0.374644E+00   0.483213E+01
   0.115000E+04  -0.303270E-03  -0.171729E-04   0.374659E+00   0.483213E+01
   0.116000E+04  -0.305459E-03  -0.174759E-04   0.374663E+00   0.483213E+01
   0.117000E+04  -0.307565E-03  -0.177738E-04   0.374668E+00   0.483213E+01
   0.118000E+04  -0.309593E-03  -0.180666E-04   0.374681E+00   0.483213E+01
   0.119000E+04  -0.311538E-03  -0.183539E-04   0.374704E+00   0.483213E+01
   0.120000E+04  -0.313402E-03  -0.186350E-04   0.374728E+00   0.483213E+01
   0.121000E+04  -0.315190E-03  -0.189099E-04   0.374729E+00   0.483213E+01
   0.122000E+04  -0.316904E-03  -0.191794E-04   0.374725E+00   0.483213E+01
   0.123000E+04  -0.318548E-03  -0.194436E-04   0.374733E+00   0.483213E+01
   0.124000E+04  -0.320114E-03  -0.197017E-04   0.374755E+00   0.483213E+01
   0.125000E+04  -0.321595E-03  -0.199519E-04   0.374780E+00   0.483213E+01
   0.126000E+04  -0.323004E-03  -0.201956E-04   0.374799E+00   0.483213E+01
   0.127000E+04  -0.324346E-03  -0.204324E-04   0.374788E+00   0.483213E+01
   0.128000E+04  -0.325622E-03  -0.206635E-04   0.374790E+00   0.483213E+01
   0.129000E+04  -0.326834E-03  -0.208885E-04   0.374805E+00   0.483213E+01
   0.130000E+04  -0.327978E-03  -0.211070E-04   0.374828E+00   0.483213E+01
   0.131000E+04  -0.329049E-03  -0.213179E-04   0.374853E+00   0.483213E+01
   0.132000E+04  -0.330058E-03  -0.215224E-04   0.374854E+00   0.483213E+01
   0.133000E+04  -0.331007E-03  -0.217200E-04   0.374845E+00   0.483213E+01
   0.134000E+04  -0.331899E-03  -0.219114E-04   0.374844E+00   0.483213E+01
   0.135000E+04  -0.332731E-03  -0.220959E-04   0.374868E+00   0.483213E+01
   0.136000E+04  -0.333500E-03  -0.222729E-04   0.374895E+00   0.483213E+01
   0.137000E+04  -0.334207E-03  -0.224423E-04   0.374916E+00   0.483213E+01
   0.138000E+04  -0.334857E-03  -0.226047E-04   0.374913E+00   0.483213E+01
   0.139000E+04  -0.335451E-03  -0.227607E-04   0.374903E+00   0.483213E+01
   0.140000E+04  -0.335997E-03  -0.229110E-04   0.374905E+00   0.483213E+01
   0.141000E+04  -0.336490E-03  -0.230551E-04   0.374919E+00   0.483213E+01
   0.142000E+04  -0.336925E-03  -0.231916E-04   0.374947E+00   0.483213E+01
   0.143000E+04  -0.337307E-03  -0.233215E-04   0.374965E+00   0.483213E+01
   0.144000E+04  -0.337635E-03  -0.234440E-04   0.374953E+00   0.483213E+01
   0.145000E+04  -0.337916E-03  -0.235608E-04   0.374946E+00   0.483213E+01
   0.146000E+04  -0.338144E-03  -0.236709E-04   0.374954E+00   0.483213E+01
   0.147000E+04  -0.338323E-03  -0.237743E-04   0.374971E+00   0.483213E+01
   0.148000E+04  -0.338455E-03  -0.238713E-04   0.374996E+00   0.483213E+01
   0.149000E+04  -0.338543E-03  -0.239619E-04   0.375003E+00   0.483213E+01
   0.150000E+04  -0.338585E-03  -0.240460E-04   0.374997E+00   0.483213E+01
   0.151000E+04  -0.338582E-03  -0.241246E-04   0.374992E+00   0.483213E+01
   0.152000E+04  -0.338535E-03  -0.241973E-04   0.375001E+00   0.483213E+01
   0.153000E+04  -0.338441E-03  -0.242629E-04   0.375016E+00   0.483213E+01
   0.154000E+04  -0.338302E-03  -0.243217E-04   0.375036E+00   0.483213E+01
   0.155000E+04  -0.338126E-03  -0.243745E-04   0.375039E+00   0.483213E+01
   0.156000E+04  -0.337909E-03  -0.244215E-04   0.375035E+00   0.483213E+01
   0.157000E+04  -0.337654E-03  -0.244632E-04   0.375032E+00   0.483213E+01
   0.158000E+04  -0.337357E-03  -0.244993E-04   0.375042E+00   0.483213E+01
   0.159000E+04  -0.337016E-03  -0.245283E-04   0.375061E+00   0.483213E+01
   0.160000E+04  -0.336641E-03  -0.245514E-04   0.375070E+00   0.483213E+01
   0.161000E+04  -0.336230E-03  -0.245681E-04   0.375063E+00   0.483213E+01
   0.162000E+04  -0.335782E-03  -0.245791E-04   0.375060E+00   0.483213E+01
   0.163000E+04  -0.335296E-03  -0.245839E-04   0.375067E+00   0.483213E+01
   0.164000E+04  -0.334769E-03  -0.245821E-04   0.375081E+00   0.483213E+01
   0.165000E+04  -0.334206E-03  -0.245742E-04   0.375097E+00   0.483213E+01
   0.166000E+04  -0.333612E-03  -0.245593E-04   0.375088E+00   0.483213E+01
   0.167000E+04  -0.332987E-03  -0.245392E-04   0.375088E+00   0.483213E+01
   0.168000E+04  -0.332331E-03  -0.245131E-04   0.375095E+00   0.483213E+01
   0.169000E+04  -0.331640E-03  -0.244807E-04   0.375107E+00   0.483213E+01
   0.170000E+04  -0.330912E-03  -0.244422E-04   0.375124E+00   0.483213E+01
   0.171000E+04  -0.330153E-03  -0.243971E-04   0.375120E+00   0.483213E+01
   0.172000E+04  -0.329365E-03  -0.243461E-04   0.375113E+00   0.483213E+01
   0.173000E+04  -0.328553E-03  -0.242900E-04   0.375114E+00   0.483213E+01
   0.174000E+04  -0.327714E-03  -0.242290E-04   0.375127E+00   0.483213E+01
   0.175000E+04  -0.326843E-03  -0.241619E-04   0.375141E+00   0.483213E+01
   0.176000E+04  -0.325942E-03  -0.240894E-04   0.375156E+00   0.483213E+01
   0.177000E+04  -0.325017E-03  -0.240118E-04   0.375152E+00   0.483213E+01
   0.178000E+04  -0.324068E-03  -0.239299E-04   0.375149E+00   0.483213E+01
   0.179000E+04  -0.323098E-03  -0.238447E-04   0.375147E+00   0.483213E+01
   0.180000E+04  -0.322107E-03  -0.237560E-04   0.375153E+00   0.483213E+01
   0.181000E+04  -0.321088E-03  -0.236627E-04   0.375168E+00   0.483213E+01
   0.182000E+04  -0.320050E-03  -0.235658E-04   0.375177E+00   0.483213E+01
   0.183000E+04  -0.318991E-03  -0.234645E-04   0.375170E+00   0.483213E+01
   0.184000E+04  -0.317912E-03  -0.233599E-04   0.375169E+00   0.483213E+01
   0.185000E+04  -0.316811E-03  -0.232517E-04   0.375173E+00   0.483213E+01
   0.186000E+04  -0.315691E-03  -0.231399E-04   0.375180E+00   0.483213E+01
   0.187000E+04  -0.314552E-03  -0.230247E-04   0.375191E+00   0.483213E+01
   0.188000E+04  -0.313398E-03  -0.229058E-04   0.375187E+00   0.483213E+01
   0.189000E+04  -0.312228E-03  -0.227837E-04   0.375187E+00   0.483213E+01
   0.190000E+04  -0.311044E-03  -0.226589E-04   0.375192E+00   0.483213E+01
   0.191000E+04  -0.309841E-03  -0.225307E-04   0.375196E+00   0.483213E+01
   0.192000E+04  -0.308616E-03  -0.223986E-04   0.375205E+00   0.483213E+01
   0.193000E+04  -0.307380E-03  -0.222631E-04   0.375202E+00   0.483213E+01
   0.194000E+04  -0.306132E-03  -0.221245E-04   0.375193E+00   0.483213E+01
   0.195000E+04  -0.304874E-03  -0.219834E-04   0.375198E+00   0.483213E+01
   0.196000E+04  -0.303603E-03  -0.218391E-04   0.375216E+00   0.483213E+01
   0.197000E+04  -0.302312E-03  -0.216905E-04   0.375227E+00   0.483213E+01
   0.198000E+04  -0.301006E-03  -0.215385E-04   0.375230E+00   0.483213E+01
   0.199000E+04  -0.299689E-03  -0.213828E-04   0.375213E+00   0.483213E+01
   0.200000E+04  -0.298365E-03  -0.212244E-04   0.375208E+00   0.483213E+01
   0.201000E+04  -0.297036E-03  -0.210638E-04   0.375218E+00   0.483213E+01
   0.202000E+04  -0.295697E-03  -0.209005E-04   0.375235E+00   0.483213E+01
   0.203000E+04  -0.294342E-03  -0.207334E-04   0.375250E+00   0.483213E+01
   0.204000E+04  -0.292978E-03  -0.205631E-04   0.375247E+00   0.483213E+01
   0.205000E+04  -0.291603E-03  -0.203896E-04   0.375232E+00   0.483213E+01
   0.206000E+04  -0.290222E-03  -0.202139E-04   0.375228E+00   0.483213E+01
   0.207000E+04  -0.288836E-03  -0.200357E-04   0.375243E+00   0.483213E+01
   0.208000E+04  -0.287441E-03  -0.198545E-04   0.375257E+00   0.483213E+01
   0.209000E+04  -0.286039E-03  -0.196711E-04   0.375268E+00   0.483213E+01
   0.210000E+04  -0.284630E-03  -0.194846E-04   0.375257E+00   0.483213E+01
   0.211000E+04  -0.283214E-03  -0.192960E-04   0.375247E+00   0.483213E+01
   0.212000E+04  -0.281793E-03  -0.191059E-04   0.375250E+00   0.483213E+01
   0.213000E+04  -0.280366E-03  -0.189137E-04   0.375261E+00   0.483213E+01
   0.214000E+04  -0.278932E-03  -0.187191E-04   0.375274E+00   0.483213E+01
   0.215000E+04  -0.277494E-03  -0.185231E-04   0.375276E+00   0.483213E+01
   0.216000E+04  -0.276053E-03  -0.183249E-04   0.375260E+00   0.483213E+01
   0.217000E+04  -0.274607E-03  -0.181255E-04   0.375259E+00   0.483213E+01
   0.218000E+04  -0.273156E-03  -0.179246E-04   0.375269E+00   0.483213E+01
   0.219000E+04  -0.271700E-03  -0.177219E-04   0.375283E+00   0.483213E+01
   0.220000E+04  -0.270241E-03  -0.175180E-04   0.375291E+00   0.483213E+01
   0.221000E+04  -0.268780E-03  -0.173119E-04   0.375272E+00   0.483213E+01
   0.222000E+04  -0.267318E-03  -0.171049E-04   0.375261E+00   0.483213E+01
   0.223000E+04  -0.265856E-03  -0.168971E-04   0.375268E+00   0.483213E+01
   0.224000E+04  -0.264390E-03  -0.166877E-04   0.375286E+00   0.483213E+01
   0.225000E+04  -0.262916E-03  -0.164759E-04   0.375305E+00   0.483213E+01
   0.226000E+04  -0.261441E-03  -0.162627E-04   0.375299E+00   0.483213E+01
   0.227000E+04  -0.259965E-03  -0.160477E-04   0.375277E+00   0.483213E+01
   0.228000E+04  -0.258489E-03  -0.158321E-04   0.375272E+00   0.483213E+01
   0.229000E+04  -0.257015E-03  -0.156155E-04   0.375285E+00   0.483213E+01
   0.230000E+04  -0.255540E-03  -0.153974E-04   0.375308E+00   0.483213E+01
   0.231000E+04  -0.254063E-03  -0.151782E-04   0.375324E+00   0.483213E+01
   0.232000E+04  -0.252584E-03  -0.149567E-04   0.375308E+00   0.483213E+01
   0.233000E+04  -0.251104E-03  -0.147344E-04   0.375289E+00   0.483213E+01
   0.234000E+04  -0.249626E-03  -0.145117E-04   0.375288E+00   0.483213E+01
   0.235000E+04  -0.248150E-03  -0.142883E-04   0.375299E+00   0.483213E+01
   0.236000E+04  -0.246673E-03  -0.140634E-04   0.375322E+00   0.483213E+01
   0.237000E+04  -0.245197E-03  -0.138381E-04   0.375333E+00   0.483213E+01
   0.238000E+04  -0.243721E-03  -0.136114E-04   0.375314E+00   0.483213E+01
   0.239000E+04  -0.242245E-03  -0.133849E-04   0.375304E+00   0.483213E+01
   0.240000E+04  -0.240770E-03  -0.131582E-04   0.375304E+00   0.483213E+01
   0.241000E+04  -0.239297E-03  -0.129316E-04   0.375317E+00   0.483213E+01
   0.242000E+04  -0.237826E-03  -0.127049E-04   0.375333E+00   0.483213E+01
   0.243000E+04  -0.236358E-03  -0.124779E-04   0.375331E+00   0.483213E+01
   0.244000E+04  -0.234892E-03  -0.122511E-04   0.375316E+00   0.483213E+01
   0.245000E+04  -0.233427E-03  -0.120249E-04   0.375309E+00   0.483213E+01
   0.246000E+04  -0.231964E-03  -0.117988E-04   0.375317E+00   0.483213E+01
   0.247000E+04  -0.230499E-03  -0.115721E-04   0.375333E+00   0.483213E+01
   0.248000E+04  -0.229039E-03  -0.113457E-04   0.375344E+00   0.483213E+01
   0.249000E+04  -0.227583E-03  -0.111186E-04   0.375325E+00   0.483213E+01
   0.250000E+04  -0.226130E-03  -0.108923E-04   0.375315E+00   0.483213E+01
   0.251000E+04  -0.224680E-03  -0.106665E-04   0.375317E+00   0.483213E+01
   0.252000E+04  -0.223231E-03  -0.104405E-04   0.375331E+00   0.483213E+01
   0.253000E+04  -0.221783E-03  -0.102141E-04   0.375346E+00   0.483213E+01
   0.254000E+04  -0.220340E-03  -0.998724E-05   0.375341E+00   0.483213E+01
   0.255000E+04  -0.218902E-03  -0.976042E-05   0.375325E+00   0.483213E+01
   0.256000E+04  -0.217469E-03  -0.953423E-05   0.375318E+00   0.483213E+01
   0.257000E+04  -0.216041E-03  -0.930805E-05   0.375329E+00   0.483213E+01
   0.258000E+04  -0.214614E-03  -0.908079E-05   0.375350E+00   0.483213E+01
   0.259000E+04  -0.213189E-03  -0.885306E-05   0.375365E+00   0.483213E+01
   0.260000E+04  -0.211768E-03  -0.862415E-05   0.375348E+00   0.483213E+01
   0.261000E+04  -0.210351E-03  -0.839544E-05   0.375333E+00   0.483213E+01
   0.262000E+04  -0.208940E-03  -0.816724E-05   0.375328E+00   0.483213E+01
   0.263000E+04  -0.207534E-03  -0.793928E-05   0.375339E+00   0.483213E+01
   0.264000E+04  -0.206132E-03  -0.771100E-05   0.375360E+00   0.483213E+01
   0.265000E+04  -0.204736E-03  -0.748278E-05   0.375370E+00   0.483213E+01
   0.266000E+04  -0.203344E-03  -0.725423E-05   0.375356E+00   0.483213E+01
   0.267000E+04  -0.201955E-03  -0.702633E-05   0.375341E+00   0.483213E+01
   0.268000E+04  -0.200572E-03  -0.679901E-05   0.375342E+00   0.483213E+01
   0.269000E+04  -0.199193E-03  -0.657188E-05   0.375352E+00   0.483213E+01
   0.270000E+04  -0.197819E-03  -0.634478E-05   0.375369E+00   0.483213E+01
   0.271000E+04  -0.196453E-03  -0.611798E-05   0.375371E+00   0.483213E+01
   0.272000E+04  -0.195091E-03  -0.589172E-05   0.375359E+00   0.483213E+01
   0.273000E+04  -0.193735E-03  -0.566659E-05   0.375349E+00   0.483213E+01
   0.274000E+04  -0.192382E-03  -0.544222E-05   0.375349E+00   0.483213E+01
   0.275000E+04  -0.191033E-03  -0.521774E-05   0.375362E+00   0.483213E+01
   0.276000E+04  -0.189691E-03  -0.499407E-05   0.375374E+00   0.483213E+01
   0.277000E+04  -0.188357E-03  -0.476997E-05   0.375362E+00   0.483213E+01
   0.278000E+04  -0.187028E-03  -0.454678E-05   0.375355E+00   0.483213E+01
   0.279000E+04  -0.185704E-03  -0.432413E-05   0.375352E+00   0.483213E+01
   0.280000E+04  -0.184383E-03  -0.410174E-05   0.375359E+00   0.483213E+01
   0.281000E+04  -0.183065E-03  -0.387913E-05   0.375371E+00   0.483213E+01
   0.282000E+04  -0.181756E-03  -0.365652E-05   0.375371E+00   0.483213E+01
   0.283000E+04  -0.180453E-03  -0.343414E-05   0.375361E+00   0.483213E+01
   0.284000E+04  -0.179156E-03  -0.321249E-05   0.375355E+00   0.483213E+01
   0.285000E+04  -0.177864E-03  -0.299108E-05   0.375362E+00   0.483213E+01
   0.286000E+04  -0.176573E-03  -0.276889E-05   0.375375E+00   0.483213E+01
   0.287000E+04  -0.175286E-03  -0.254668E-05   0.375385E+00   0.483213E+01
   0.288000E+04  -0.174003E-03  -0.232343E-05   0.375368E+00   0.483213E+01
   0.289000E+04  -0.172727E-03  -0.210075E-05   0.375361E+00   0.483213E+01
   0.290000E+04  -0.171458E-03  -0.187866E-05   0.375357E+00   0.483213E+01
   0.291000E+04  -0.170193E-03  -0.165699E-05   0.375367E+00   0.483213E+01
   0.292000E+04  -0.168931E-03  -0.143493E-05   0.375386E+00   0.483213E+01
   0.293000E+04  -0.167674E-03  -0.121317E-05   0.375392E+00   0.483213E+01
   0.294000E+04  -0.166422E-03  -0.990992E-06   0.375378E+00   0.483213E+01
   0.295000E+04  -0.165173E-03  -0.769603E-06   0.375370E+00   0.483213E+01
   0.296000E+04  -0.163931E-03  -0.548939E-06   0.375368E+00   0.483213E+01
   0.297000E+04  -0.162692E-03  -0.328827E-06   0.375373E+00   0.483213E+01
   0.298000E+04  -0.161459E-03  -0.109424E-06   0.375389E+00   0.483213E+01
   0.299000E+04  -0.160232E-03   0.109904E-06   0.375388E+00   0.483213E+01
   0.300000E+04  -0.159010E-03   0.328370E-06   0.375382E+00   0.483213E+01
   0.301000E+04  -0.157793E-03   0.545521E-06   0.375375E+00   0.483213E+01
   0.302000E+04  -0.156579E-03   0.761728E-06   0.375374E+00   0.483213E+01
   0.303000E+04  -0.155369E-03   0.977634E-06   0.375383E+00   0.483213E+01
   0.304000E+04  -0.154165E-03   0.119232E-05   0.375392E+00   0.483213E+01
   0.305000E+04  -0.152968E-03   0.140690E-05   0.375380E+00   0.483213E+01
   0.306000E+04  -0.151776E-03   0.162005E-05   0.375380E+00   0.483213E+01
   0.307000E+04  -0.150588E-03   0.183206E-05   0.375378E+00   0.483213E+01
   0.308000E+04  -0.149404E-03   0.204315E-05   0.375382E+00   0.483213E+01
   0.309000E+04  -0.148223E-03   0.225347E-05   0.375388E+00   0.483213E+01
   0.310000E+04  -0.147049E-03   0.246351E-05   0.375381E+00   0.483213E+01
   0.311000E+04  -0.145881E-03   0.267250E-05   0.375375E+00   0.483213E+01
   0.312000E+04  -0.144720E-03   0.288018E-05   0.375377E+00   0.483213E+01
   0.313000E+04  -0.143563E-03   0.308718E-05   0.375384E+00   0.483213E+01
   0.314000E+04  -0.142407E-03   0.329443E-05   0.375395E+00   0.483213E+01
   0.315000E+04  -0.141255E-03   0.350112E-05   0.375397E+00   0.483213E+01
   0.316000E+04  -0.140108E-03   0.370819E-05   0.375376E+00   0.483213E+01
   0.317000E+04  -0.138968E-03   0.391411E-05   0.375376E+00   0.483213E+01
   0.318000E+04  -0.137833E-03   0.411908E-05   0.375380E+00   0.483213E+01
   0.319000E+04  -0.136703E-03   0.432326E-05   0.375390E+00   0.483213E+01
   0.320000E+04  -0.135577E-03   0.452704E-05   0.375401E+00   0.483213E+01
   0.321000E+04  -0.134454E-03   0.473060E-05   0.375400E+00   0.483213E+01
   0.322000E+04  -0.133336E-03   0.493354E-05   0.375387E+00   0.483213E+01
   0.323000E+04  -0.132223E-03   0.513535E-05   0.375382E+00   0.483213E+01
   0.324000E+04  -0.131116E-03   0.533609E-05   0.375388E+00   0.483213E+01
   0.325000E+04  -0.130013E-03   0.553628E-05   0.375395E+00   0.483213E+01
   0.326000E+04  -0.128914E-03   0.573555E-05   0.375404E+00   0.483213E+01
   0.327000E+04  -0.127820E-03   0.593444E-05   0.375397E+00   0.483213E+01
   0.328000E+04  -0.126731E-03   0.613212E-05   0.375389E+00   0.483213E+01
   0.329000E+04  -0.125647E-03   0.632827E-05   0.375389E+00   0.483213E+01
   0.330000E+04  -0.124567E-03   0.652327E-05   0.375393E+00   0.483213E+01
   0.331000E+04  -0.123491E-03   0.671773E-05   0.375401E+00   0.483213E+01
   0.332000E+04  -0.122420E-03   0.691089E-05   0.375402E+00   0.483213E+01
   0.333000E+04  -0.121356E-03   0.710381E-05   0.375387E+00   0.483213E+01
   0.334000E+04  -0.120296E-03   0.729539E-05   0.375387E+00   0.483213E+01
   0.335000E+04  -0.119241E-03   0.748614E-05   0.375394E+00   0.483213E+01
   0.336000E+04  -0.118190E-03   0.767634E-05   0.375400E+00   0.483213E+01
   0.337000E+04  -0.117143E-03   0.786609E-05   0.375403E+00   0.483213E+01
   0.338000E+04  -0.116102E-03   0.805570E-05   0.375390E+00   0.483213E+01
   0.339000E+04  -0.115066E-03   0.824451E-05   0.375383E+00   0.483213E+01
   0.340000E+04  -0.114037E-03   0.843232E-05   0.375388E+00   0.483213E+01
   0.341000E+04  -0.113012E-03   0.861971E-05   0.375400E+00   0.483213E+01
   0.342000E+04  -0.111988E-03   0.880756E-05   0.375411E+00   0.483213E+01
   0.343000E+04  -0.110968E-03   0.899501E-05   0.375407E+00   0.483213E+01
   0.344000E+04  -0.109954E-03   0.918303E-05   0.375383E+00   0.483213E+01
   0.345000E+04  -0.108944E-03   0.937016E-05   0.375379E+00   0.483213E+01
   0.346000E+04  -0.107940E-03   0.955681E-05   0.375390E+00   0.483213E+01
   0.347000E+04  -0.106941E-03   0.974317E-05   0.375408E+00   0.483213E+01
   0.348000E+04  -0.105945E-03   0.992963E-05   0.375417E+00   0.483213E+01
   0.349000E+04  -0.104952E-03   0.101161E-04   0.375407E+00   0.483213E+01
   0.350000E+04  -0.103962E-03   0.103022E-04   0.375391E+00   0.483213E+01
   0.351000E+04  -0.102977E-03   0.104875E-04   0.375386E+00   0.483213E+01
   0.352000E+04  -0.101997E-03   0.106719E-04   0.375397E+00   0.483213E+01
   0.353000E+04  -0.101022E-03   0.108561E-04   0.375410E+00   0.483213E+01
   0.354000E+04  -0.100050E-03   0.110394E-04   0.375418E+00   0.483213E+01
   0.355000E+04  -0.990827E-04   0.112227E-04   0.375404E+00   0.483213E+01
   0.356000E+04  -0.981187E-04   0.114050E-04   0.375393E+00   0.483213E+01
   0.357000E+04  -0.971590E-04   0.115859E-04   0.375392E+00   0.483213E+01
   0.358000E+04  -0.962037E-04   0.117659E-04   0.375403E+00   0.483213E+01
   0.359000E+04  -0.952526E-04   0.119455E-04   0.375414E+00   0.483213E+01
   0.360000E+04  -0.943062E-04   0.121240E-04   0.375413E+00   0.483213E+01
   0.361000E+04  -0.933649E-04   0.123021E-04   0.375393E+00   0.483213E+01
   0.362000E+04  -0.924265E-04   0.124788E-04   0.375391E+00   0.483213E+01
   0.363000E+04  -0.914927E-04   0.126545E-04   0.375398E+00   0.483213E+01
   0.364000E+04  -0.905628E-04   0.128296E-04   0.375410E+00   0.483213E+01
   0.365000E+04  -0.896370E-04   0.130038E-04   0.375416E+00   0.483213E+01
   0.366000E+04  -0.887167E-04   0.131779E-04   0.375399E+00   0.483213E+01
   0.367000E+04  -0.878002E-04   0.133509E-04   0.375387E+00   0.483213E+01
   0.368000E+04  -0.868887E-04   0.135227E-04   0.375389E+00   0.483213E+01
   0.369000E+04  -0.859810E-04   0.136939E-04   0.375405E+00   0.483213E+01
   0.370000E+04  -0.850761E-04   0.138652E-04   0.375421E+00   0.483213E+01
   0.371000E+04  -0.841743E-04   0.140359E-04   0.375416E+00   0.483213E+01
   0.372000E+04  -0.832775E-04   0.142067E-04   0.375388E+00   0.483213E+01
   0.373000E+04  -0.823838E-04   0.143763E-04   0.375382E+00   0.483213E+01
   0.374000E+04  -0.814952E-04   0.145451E-04   0.375391E+00   0.483213E+01
   0.375000E+04  -0.806110E-04   0.147135E-04   0.375413E+00   0.483213E+01
   0.376000E+04  -0.797298E-04   0.148816E-04   0.375428E+00   0.483213E+01
   0.377000E+04  -0.788518E-04   0.150497E-04   0.375414E+00   0.483213E+01
   0.378000E+04  -0.779757E-04   0.152170E-04   0.375394E+00   0.483213E+01
   0.379000E+04  -0.771041E-04   0.153832E-04   0.375389E+00   0.483213E+01
   0.380000E+04  -0.762370E-04   0.155482E-04   0.375398E+00   0.483213E+01
   0.381000E+04  -0.753741E-04   0.157129E-04   0.375419E+00   0.483213E+01
   0.382000E+04  -0.745150E-04   0.158766E-04   0.375430E+00   0.483213E+01
   0.383000E+04  -0.736599E-04   0.160400E-04   0.375411E+00   0.483213E+01
   0.384000E+04  -0.728066E-04   0.162019E-04   0.375395E+00   0.483213E+01
   0.385000E+04  -0.719569E-04   0.163622E-04   0.375392E+00   0.483213E+01
   0.386000E+04  -0.711118E-04   0.165211E-04   0.375404E+00   0.483213E+01
   0.387000E+04  -0.702712E-04   0.166792E-04   0.375422E+00   0.483213E+01
   0.388000E+04  -0.694355E-04   0.168359E-04   0.375423E+00   0.483213E+01
   0.389000E+04  -0.686040E-04   0.169918E-04   0.375403E+00   0.483213E+01
   0.390000E+04  -0.677750E-04   0.171460E-04   0.375393E+00   0.483213E+01
   0.391000E+04  -0.669503E-04   0.172990E-04   0.375400E+00   0.483213E+01
   0.392000E+04  -0.661301E-04   0.174512E-04   0.375413E+00   0.483213E+01
   0.393000E+04  -0.653149E-04   0.176026E-04   0.375425E+00   0.483213E+01