title="breakthrough data set at     5 wells"
variables="time(days)","cavg","cpk","upk","zswi"
zone i=     1295
   0.100000E+02   0.785702E-10   0.110094E-09   0.464969E+00   0.486201E+01
   0.200000E+02   0.185595E-09   0.256262E-09   0.382117E+00   0.484040E+01
   0.300000E+02   0.367407E-09   0.500325E-09   0.381813E+00   0.484040E+01
   0.400000E+02   0.652020E-09   0.877158E-09   0.381908E+00   0.484040E+01
   0.500000E+02   0.107219E-08   0.142734E-08   0.382026E+00   0.484040E+01
   0.600000E+02   0.166638E-08   0.219864E-08   0.382149E+00   0.484040E+01
   0.700000E+02   0.247967E-08   0.327838E-08   0.382276E+00   0.484040E+01
   0.800000E+02   0.356529E-08   0.472188E-08   0.382399E+00   0.484040E+01
   0.900000E+02   0.498606E-08   0.661088E-08   0.382515E+00   0.484040E+01
   0.100000E+03   0.681605E-08   0.904303E-08   0.382623E+00   0.484040E+01
   0.110000E+03   0.914219E-08   0.121329E-07   0.382722E+00   0.484040E+01
   0.120000E+03   0.120656E-07   0.160137E-07   0.382813E+00   0.484040E+01
   0.130000E+03   0.157024E-07   0.208386E-07   0.382895E+00   0.484040E+01
   0.140000E+03   0.201842E-07   0.267809E-07   0.382890E+00   0.484040E+01
   0.150000E+03   0.256547E-07   0.340311E-07   0.382970E+00   0.484040E+01
   0.160000E+03   0.322729E-07   0.427993E-07   0.383042E+00   0.484040E+01
   0.170000E+03   0.402094E-07   0.533112E-07   0.383107E+00   0.484040E+01
   0.180000E+03   0.496432E-07   0.658038E-07   0.383166E+00   0.484040E+01
   0.190000E+03   0.607587E-07   0.805199E-07   0.383221E+00   0.484040E+01
   0.200000E+03   0.737427E-07   0.977050E-07   0.383272E+00   0.484040E+01
   0.210000E+03   0.887836E-07   0.117605E-06   0.383319E+00   0.484040E+01
   0.220000E+03   0.106072E-06   0.140469E-06   0.383364E+00   0.484040E+01
   0.230000E+03   0.125802E-06   0.166547E-06   0.383405E+00   0.484040E+01
   0.240000E+03   0.148171E-06   0.196100E-06   0.383444E+00   0.484040E+01
   0.250000E+03   0.173386E-06   0.229395E-06   0.383481E+00   0.484040E+01
   0.260000E+03   0.201658E-06   0.266707E-06   0.383515E+00   0.484040E+01
   0.270000E+03   0.233203E-06   0.308326E-06   0.383547E+00   0.484040E+01
   0.280000E+03   0.268246E-06   0.354550E-06   0.383578E+00   0.484040E+01
   0.290000E+03   0.307019E-06   0.405689E-06   0.383607E+00   0.484040E+01
   0.300000E+03   0.349758E-06   0.462065E-06   0.383634E+00   0.484040E+01
   0.310000E+03   0.396707E-06   0.524009E-06   0.383660E+00   0.484040E+01
   0.320000E+03   0.448116E-06   0.591865E-06   0.383685E+00   0.484040E+01
   0.330000E+03   0.504239E-06   0.665981E-06   0.383709E+00   0.484040E+01
   0.340000E+03   0.565334E-06   0.746709E-06   0.383732E+00   0.484040E+01
   0.350000E+03   0.631662E-06   0.834405E-06   0.383754E+00   0.484040E+01
   0.360000E+03   0.703483E-06   0.929420E-06   0.383775E+00   0.484040E+01
   0.370000E+03   0.781056E-06   0.103210E-05   0.383796E+00   0.484040E+01
   0.380000E+03   0.864636E-06   0.114276E-05   0.383815E+00   0.484040E+01
   0.390000E+03   0.954473E-06   0.126175E-05   0.383834E+00   0.484040E+01
   0.400000E+03   0.105081E-05   0.138935E-05   0.383851E+00   0.484040E+01
   0.410000E+03   0.115389E-05   0.152585E-05   0.383868E+00   0.484040E+01
   0.420000E+03   0.126393E-05   0.167152E-05   0.383885E+00   0.484040E+01
   0.430000E+03   0.138115E-05   0.182659E-05   0.383900E+00   0.484040E+01
   0.440000E+03   0.150575E-05   0.199129E-05   0.383915E+00   0.484040E+01
   0.450000E+03   0.163792E-05   0.216578E-05   0.383928E+00   0.484040E+01
   0.460000E+03   0.177782E-05   0.235022E-05   0.383942E+00   0.484040E+01
   0.470000E+03   0.192560E-05   0.254472E-05   0.383955E+00   0.484040E+01
   0.480000E+03   0.208138E-05   0.274937E-05   0.383964E+00   0.484040E+01
   0.490000E+03   0.224536E-05   0.296432E-05   0.383972E+00   0.484040E+01
   0.500000E+03   0.241765E-05   0.318966E-05   0.384004E+00   0.484040E+01
   0.510000E+03   0.259874E-05   0.342597E-05   0.383983E+00   0.484040E+01
   0.520000E+03   0.278917E-05   0.367391E-05   0.383995E+00   0.484040E+01
   0.530000E+03   0.298966E-05   0.393440E-05   0.383995E+00   0.484040E+01
   0.540000E+03   0.320111E-05   0.420861E-05   0.384003E+00   0.484040E+01
   0.550000E+03   0.342438E-05   0.449765E-05   0.384013E+00   0.484040E+01
   0.560000E+03   0.366026E-05   0.480251E-05   0.384026E+00   0.484040E+01
   0.570000E+03   0.390942E-05   0.512404E-05   0.384033E+00   0.484040E+01
   0.580000E+03   0.417230E-05   0.546274E-05   0.384034E+00   0.484040E+01
   0.590000E+03   0.444910E-05   0.581873E-05   0.384039E+00   0.484040E+01
   0.600000E+03   0.473982E-05   0.619186E-05   0.384060E+00   0.484040E+01
   0.610000E+03   0.504438E-05   0.658185E-05   0.384055E+00   0.484040E+01
   0.620000E+03   0.536274E-05   0.698845E-05   0.384039E+00   0.484040E+01
   0.630000E+03   0.569463E-05   0.741112E-05   0.384059E+00   0.484040E+01
   0.640000E+03   0.604003E-05   0.784964E-05   0.384076E+00   0.484040E+01
   0.650000E+03   0.639913E-05   0.830406E-05   0.384064E+00   0.484040E+01
   0.660000E+03   0.677197E-05   0.877428E-05   0.384058E+00   0.484040E+01
   0.670000E+03   0.715850E-05   0.926004E-05   0.384077E+00   0.484040E+01
   0.680000E+03   0.755887E-05   0.976139E-05   0.384091E+00   0.484040E+01
   0.690000E+03   0.797342E-05   0.102786E-04   0.384079E+00   0.484040E+01
   0.700000E+03   0.840226E-05   0.108118E-04   0.384074E+00   0.484040E+01
   0.710000E+03   0.884523E-05   0.113605E-04   0.384085E+00   0.484040E+01
   0.720000E+03   0.930224E-05   0.119245E-04   0.384093E+00   0.484040E+01
   0.730000E+03   0.977291E-05   0.125031E-04   0.384090E+00   0.484040E+01
   0.740000E+03   0.102567E-04   0.130954E-04   0.384097E+00   0.484040E+01
   0.750000E+03   0.107529E-04   0.137003E-04   0.384102E+00   0.484040E+01
   0.760000E+03   0.112605E-04   0.143162E-04   0.384101E+00   0.484040E+01
   0.770000E+03   0.117782E-04   0.149413E-04   0.384103E+00   0.484040E+01
   0.780000E+03   0.123045E-04   0.155732E-04   0.384111E+00   0.484040E+01
   0.790000E+03   0.128373E-04   0.162093E-04   0.384122E+00   0.484040E+01
   0.800000E+03   0.133755E-04   0.168502E-04   0.384105E+00   0.484040E+01
   0.810000E+03   0.139174E-04   0.175504E-04   0.384101E+00   0.484040E+01
   0.820000E+03   0.144614E-04   0.182521E-04   0.384122E+00   0.484040E+01
   0.830000E+03   0.150066E-04   0.189539E-04   0.384114E+00   0.484040E+01
   0.840000E+03   0.155523E-04   0.196544E-04   0.384116E+00   0.484040E+01
   0.850000E+03   0.160975E-04   0.203522E-04   0.384123E+00   0.484040E+01
   0.860000E+03   0.166415E-04   0.210460E-04   0.384134E+00   0.484040E+01
   0.870000E+03   0.171845E-04   0.217359E-04   0.384116E+00   0.484040E+01
   0.880000E+03   0.177259E-04   0.224207E-04   0.384117E+00   0.484040E+01
   0.890000E+03   0.182652E-04   0.230999E-04   0.384128E+00   0.484040E+01
   0.900000E+03   0.188025E-04   0.237731E-04   0.384128E+00   0.484040E+01
   0.910000E+03   0.193375E-04   0.244403E-04   0.384129E+00   0.484040E+01
   0.920000E+03   0.198701E-04   0.251009E-04   0.384134E+00   0.484040E+01
   0.930000E+03   0.204001E-04   0.257550E-04   0.384135E+00   0.484040E+01
   0.940000E+03   0.209275E-04   0.264025E-04   0.384130E+00   0.484040E+01
   0.950000E+03   0.214515E-04   0.270428E-04   0.384134E+00   0.484040E+01
   0.960000E+03   0.219716E-04   0.276753E-04   0.384155E+00   0.484040E+01
   0.970000E+03   0.224882E-04   0.283008E-04   0.384135E+00   0.484040E+01
   0.980000E+03   0.230016E-04   0.289193E-04   0.384126E+00   0.484040E+01
   0.990000E+03   0.235120E-04   0.295315E-04   0.384133E+00   0.484040E+01
   0.100000E+04   0.240200E-04   0.301379E-04   0.384148E+00   0.484040E+01
   0.101000E+04   0.245269E-04   0.307401E-04   0.384147E+00   0.484040E+01
   0.102000E+04   0.250341E-04   0.313403E-04   0.384133E+00   0.484040E+01
   0.103000E+04   0.255433E-04   0.319404E-04   0.384132E+00   0.484040E+01
   0.104000E+04   0.260555E-04   0.325419E-04   0.384142E+00   0.484040E+01
   0.105000E+04   0.265723E-04   0.331470E-04   0.384143E+00   0.484040E+01
   0.106000E+04   0.270946E-04   0.337575E-04   0.384143E+00   0.484040E+01
   0.107000E+04   0.276229E-04   0.343744E-04   0.384148E+00   0.484040E+01
   0.108000E+04   0.281576E-04   0.349986E-04   0.384152E+00   0.484040E+01
   0.109000E+04   0.286992E-04   0.356315E-04   0.384144E+00   0.484040E+01
   0.110000E+04   0.292472E-04   0.362731E-04   0.384142E+00   0.484040E+01
   0.111000E+04   0.298005E-04   0.369227E-04   0.384162E+00   0.484040E+01
   0.112000E+04   0.303591E-04   0.375811E-04   0.384152E+00   0.484040E+01
   0.113000E+04   0.309228E-04   0.382483E-04   0.384141E+00   0.484040E+01
   0.114000E+04   0.314924E-04   0.389251E-04   0.384141E+00   0.484040E+01
   0.115000E+04   0.320681E-04   0.396122E-04   0.384151E+00   0.484040E+01
   0.116000E+04   0.326511E-04   0.403110E-04   0.384154E+00   0.484040E+01
   0.117000E+04   0.332423E-04   0.410225E-04   0.384150E+00   0.484040E+01
   0.118000E+04   0.338417E-04   0.417474E-04   0.384155E+00   0.484040E+01
   0.119000E+04   0.344495E-04   0.424857E-04   0.384170E+00   0.484040E+01
   0.120000E+04   0.350681E-04   0.432407E-04   0.384142E+00   0.484040E+01
   0.121000E+04   0.356992E-04   0.440141E-04   0.384144E+00   0.484040E+01
   0.122000E+04   0.363454E-04   0.448089E-04   0.384148E+00   0.484040E+01
   0.123000E+04   0.370083E-04   0.456273E-04   0.384161E+00   0.484040E+01
   0.124000E+04   0.376898E-04   0.464721E-04   0.384163E+00   0.484040E+01
   0.125000E+04   0.383916E-04   0.473455E-04   0.384153E+00   0.484040E+01
   0.126000E+04   0.391151E-04   0.482499E-04   0.384152E+00   0.484040E+01
   0.127000E+04   0.398623E-04   0.491878E-04   0.384152E+00   0.484040E+01
   0.128000E+04   0.406330E-04   0.501594E-04   0.384166E+00   0.484040E+01
   0.129000E+04   0.414275E-04   0.511659E-04   0.384168E+00   0.484040E+01
   0.130000E+04   0.422458E-04   0.522077E-04   0.384159E+00   0.484040E+01
   0.131000E+04   0.430880E-04   0.532851E-04   0.384159E+00   0.484040E+01
   0.132000E+04   0.439550E-04   0.543992E-04   0.384155E+00   0.484040E+01
   0.133000E+04   0.448458E-04   0.555491E-04   0.384167E+00   0.484040E+01
   0.134000E+04   0.457598E-04   0.567343E-04   0.384174E+00   0.484040E+01
   0.135000E+04   0.466962E-04   0.579542E-04   0.384166E+00   0.484040E+01
   0.136000E+04   0.476543E-04   0.592078E-04   0.384165E+00   0.484040E+01
   0.137000E+04   0.486343E-04   0.604954E-04   0.384160E+00   0.484040E+01
   0.138000E+04   0.496356E-04   0.618158E-04   0.384167E+00   0.484040E+01
   0.139000E+04   0.506566E-04   0.631673E-04   0.384179E+00   0.484040E+01
   0.140000E+04   0.516964E-04   0.645489E-04   0.384173E+00   0.484040E+01
   0.141000E+04   0.527537E-04   0.659591E-04   0.384169E+00   0.484040E+01
   0.142000E+04   0.538285E-04   0.673973E-04   0.384166E+00   0.484040E+01
   0.143000E+04   0.549205E-04   0.688629E-04   0.384167E+00   0.484040E+01
   0.144000E+04   0.560278E-04   0.703534E-04   0.384180E+00   0.484040E+01
   0.145000E+04   0.571497E-04   0.718680E-04   0.384180E+00   0.484040E+01
   0.146000E+04   0.582849E-04   0.734050E-04   0.384175E+00   0.484040E+01
   0.147000E+04   0.594328E-04   0.749635E-04   0.384173E+00   0.484040E+01
   0.148000E+04   0.605940E-04   0.765436E-04   0.384168E+00   0.484040E+01
   0.149000E+04   0.617671E-04   0.781433E-04   0.384178E+00   0.484040E+01
   0.150000E+04   0.629513E-04   0.797614E-04   0.384186E+00   0.484040E+01
   0.151000E+04   0.641456E-04   0.813968E-04   0.384180E+00   0.484040E+01
   0.152000E+04   0.653489E-04   0.830481E-04   0.384178E+00   0.484040E+01
   0.153000E+04   0.665619E-04   0.847156E-04   0.384172E+00   0.484040E+01
   0.154000E+04   0.677840E-04   0.863982E-04   0.384175E+00   0.484040E+01
   0.155000E+04   0.690141E-04   0.880942E-04   0.384188E+00   0.484040E+01
   0.156000E+04   0.702516E-04   0.898031E-04   0.384186E+00   0.484040E+01
   0.157000E+04   0.714953E-04   0.915235E-04   0.384181E+00   0.484040E+01
   0.158000E+04   0.727452E-04   0.932550E-04   0.384178E+00   0.484040E+01
   0.159000E+04   0.740018E-04   0.949979E-04   0.384174E+00   0.484040E+01
   0.160000E+04   0.752639E-04   0.967503E-04   0.384185E+00   0.484040E+01
   0.161000E+04   0.765312E-04   0.985117E-04   0.384191E+00   0.484040E+01
   0.162000E+04   0.778026E-04   0.100281E-03   0.384186E+00   0.484040E+01
   0.163000E+04   0.790773E-04   0.102057E-03   0.384184E+00   0.484040E+01
   0.164000E+04   0.803562E-04   0.103841E-03   0.384178E+00   0.484040E+01
   0.165000E+04   0.816389E-04   0.105632E-03   0.384181E+00   0.484040E+01
   0.166000E+04   0.829246E-04   0.107428E-03   0.384194E+00   0.484040E+01
   0.167000E+04   0.842128E-04   0.109229E-03   0.384191E+00   0.484040E+01
   0.168000E+04   0.855025E-04   0.111035E-03   0.384186E+00   0.484040E+01
   0.169000E+04   0.867938E-04   0.112844E-03   0.384184E+00   0.484040E+01
   0.170000E+04   0.880874E-04   0.114657E-03   0.384180E+00   0.484040E+01
   0.171000E+04   0.893825E-04   0.116474E-03   0.384190E+00   0.484040E+01
   0.172000E+04   0.906788E-04   0.118293E-03   0.384196E+00   0.484040E+01
   0.173000E+04   0.919753E-04   0.120113E-03   0.384191E+00   0.484040E+01
   0.174000E+04   0.932714E-04   0.121935E-03   0.384189E+00   0.484040E+01
   0.175000E+04   0.945680E-04   0.123759E-03   0.384183E+00   0.484040E+01
   0.176000E+04   0.958651E-04   0.125583E-03   0.384185E+00   0.484040E+01
   0.177000E+04   0.971619E-04   0.127408E-03   0.384198E+00   0.484040E+01
   0.178000E+04   0.984583E-04   0.129233E-03   0.384196E+00   0.484040E+01
   0.179000E+04   0.997532E-04   0.131057E-03   0.384192E+00   0.484040E+01
   0.180000E+04   0.101047E-03   0.132880E-03   0.384189E+00   0.484040E+01
   0.181000E+04   0.102340E-03   0.134703E-03   0.384184E+00   0.484040E+01
   0.182000E+04   0.103631E-03   0.136525E-03   0.384193E+00   0.484040E+01
   0.183000E+04   0.104922E-03   0.138345E-03   0.384201E+00   0.484040E+01
   0.184000E+04   0.106210E-03   0.140163E-03   0.384196E+00   0.484040E+01
   0.185000E+04   0.107496E-03   0.141977E-03   0.384193E+00   0.484040E+01
   0.186000E+04   0.108780E-03   0.143790E-03   0.384187E+00   0.484040E+01
   0.187000E+04   0.110062E-03   0.145600E-03   0.384188E+00   0.484040E+01
   0.188000E+04   0.111342E-03   0.147407E-03   0.384201E+00   0.484040E+01
   0.189000E+04   0.112619E-03   0.149212E-03   0.384201E+00   0.484040E+01
   0.190000E+04   0.113894E-03   0.151012E-03   0.384196E+00   0.484040E+01
   0.191000E+04   0.115165E-03   0.152808E-03   0.384194E+00   0.484040E+01
   0.192000E+04   0.116434E-03   0.154601E-03   0.384188E+00   0.484040E+01
   0.193000E+04   0.117700E-03   0.156391E-03   0.384195E+00   0.484040E+01
   0.194000E+04   0.118964E-03   0.158176E-03   0.384205E+00   0.484040E+01
   0.195000E+04   0.120224E-03   0.159957E-03   0.384200E+00   0.484040E+01
   0.196000E+04   0.121480E-03   0.161732E-03   0.384197E+00   0.484040E+01
   0.197000E+04   0.122732E-03   0.163503E-03   0.384191E+00   0.484040E+01
   0.198000E+04   0.123981E-03   0.165270E-03   0.384190E+00   0.484040E+01
   0.199000E+04   0.125227E-03   0.167031E-03   0.384202E+00   0.484040E+01
   0.200000E+04   0.126470E-03   0.168788E-03   0.384204E+00   0.484040E+01
   0.201000E+04   0.127709E-03   0.170539E-03   0.384201E+00   0.484040E+01
   0.202000E+04   0.128944E-03   0.172285E-03   0.384198E+00   0.484040E+01
   0.203000E+04   0.130175E-03   0.174026E-03   0.384191E+00   0.484040E+01
   0.204000E+04   0.131404E-03   0.175763E-03   0.384195E+00   0.484040E+01
   0.205000E+04   0.132629E-03   0.177494E-03   0.384207E+00   0.484040E+01
   0.206000E+04   0.133850E-03   0.179219E-03   0.384204E+00   0.484040E+01
   0.207000E+04   0.135066E-03   0.180939E-03   0.384199E+00   0.484040E+01
   0.208000E+04   0.136277E-03   0.182652E-03   0.384196E+00   0.484040E+01
   0.209000E+04   0.137485E-03   0.184361E-03   0.384191E+00   0.484040E+01
   0.210000E+04   0.138689E-03   0.186063E-03   0.384201E+00   0.484040E+01
   0.211000E+04   0.139890E-03   0.187760E-03   0.384207E+00   0.484040E+01
   0.212000E+04   0.141087E-03   0.189451E-03   0.384203E+00   0.484040E+01
   0.213000E+04   0.142278E-03   0.191136E-03   0.384201E+00   0.484040E+01
   0.214000E+04   0.143465E-03   0.192815E-03   0.384194E+00   0.484040E+01
   0.215000E+04   0.144649E-03   0.194489E-03   0.384194E+00   0.484040E+01
   0.216000E+04   0.145830E-03   0.196158E-03   0.384206E+00   0.484040E+01
   0.217000E+04   0.147007E-03   0.197821E-03   0.384207E+00   0.484040E+01
   0.218000E+04   0.148179E-03   0.199478E-03   0.384203E+00   0.484040E+01
   0.219000E+04   0.149346E-03   0.201128E-03   0.384200E+00   0.484040E+01
   0.220000E+04   0.150510E-03   0.202774E-03   0.384193E+00   0.484040E+01
   0.221000E+04   0.151671E-03   0.204414E-03   0.384198E+00   0.484040E+01
   0.222000E+04   0.152827E-03   0.206049E-03   0.384209E+00   0.484040E+01
   0.223000E+04   0.153979E-03   0.207677E-03   0.384206E+00   0.484040E+01
   0.224000E+04   0.155126E-03   0.209298E-03   0.384201E+00   0.484040E+01
   0.225000E+04   0.156267E-03   0.210913E-03   0.384197E+00   0.484040E+01
   0.226000E+04   0.157405E-03   0.212523E-03   0.384193E+00   0.484040E+01
   0.227000E+04   0.158538E-03   0.214126E-03   0.384203E+00   0.484040E+01
   0.228000E+04   0.159668E-03   0.215723E-03   0.384209E+00   0.484040E+01
   0.229000E+04   0.160794E-03   0.217314E-03   0.384205E+00   0.484040E+01
   0.230000E+04   0.161914E-03   0.218899E-03   0.384203E+00   0.484040E+01
   0.231000E+04   0.163031E-03   0.220478E-03   0.384196E+00   0.484040E+01
   0.232000E+04   0.164143E-03   0.222052E-03   0.384195E+00   0.484040E+01
   0.233000E+04   0.165252E-03   0.223619E-03   0.384207E+00   0.484040E+01
   0.234000E+04   0.166358E-03   0.225182E-03   0.384208E+00   0.484040E+01
   0.235000E+04   0.167459E-03   0.226738E-03   0.384204E+00   0.484040E+01
   0.236000E+04   0.168555E-03   0.228288E-03   0.384202E+00   0.484040E+01
   0.237000E+04   0.169647E-03   0.229834E-03   0.384195E+00   0.484040E+01
   0.238000E+04   0.170735E-03   0.231373E-03   0.384198E+00   0.484040E+01
   0.239000E+04   0.171820E-03   0.232906E-03   0.384210E+00   0.484040E+01
   0.240000E+04   0.172900E-03   0.234433E-03   0.384207E+00   0.484040E+01
   0.241000E+04   0.173975E-03   0.235953E-03   0.384203E+00   0.484040E+01
   0.242000E+04   0.175044E-03   0.237467E-03   0.384198E+00   0.484040E+01
   0.243000E+04   0.176109E-03   0.238974E-03   0.384194E+00   0.484040E+01
   0.244000E+04   0.177170E-03   0.240475E-03   0.384202E+00   0.484040E+01
   0.245000E+04   0.178227E-03   0.241971E-03   0.384210E+00   0.484040E+01
   0.246000E+04   0.179279E-03   0.243459E-03   0.384206E+00   0.484040E+01
   0.247000E+04   0.180326E-03   0.244941E-03   0.384203E+00   0.484040E+01
   0.248000E+04   0.181369E-03   0.246417E-03   0.384196E+00   0.484040E+01
   0.249000E+04   0.182408E-03   0.247888E-03   0.384195E+00   0.484040E+01
   0.250000E+04   0.183443E-03   0.249352E-03   0.384206E+00   0.484040E+01
   0.251000E+04   0.184474E-03   0.250811E-03   0.384208E+00   0.484040E+01
   0.252000E+04   0.185502E-03   0.252264E-03   0.384205E+00   0.484040E+01
   0.253000E+04   0.186524E-03   0.253711E-03   0.384202E+00   0.484040E+01
   0.254000E+04   0.187542E-03   0.255152E-03   0.384195E+00   0.484040E+01
   0.255000E+04   0.188557E-03   0.256587E-03   0.384196E+00   0.484040E+01
   0.256000E+04   0.189567E-03   0.258017E-03   0.384208E+00   0.484040E+01
   0.257000E+04   0.190574E-03   0.259440E-03   0.384207E+00   0.484040E+01
   0.258000E+04   0.191575E-03   0.260857E-03   0.384203E+00   0.484040E+01
   0.259000E+04   0.192571E-03   0.262267E-03   0.384199E+00   0.484040E+01
   0.260000E+04   0.193562E-03   0.263671E-03   0.384193E+00   0.484040E+01
   0.261000E+04   0.194549E-03   0.265068E-03   0.384199E+00   0.484040E+01
   0.262000E+04   0.195532E-03   0.266459E-03   0.384209E+00   0.484040E+01
   0.263000E+04   0.196510E-03   0.267843E-03   0.384206E+00   0.484040E+01
   0.264000E+04   0.197482E-03   0.269220E-03   0.384202E+00   0.484040E+01
   0.265000E+04   0.198449E-03   0.270590E-03   0.384196E+00   0.484040E+01
   0.266000E+04   0.199411E-03   0.271954E-03   0.384193E+00   0.484040E+01
   0.267000E+04   0.200370E-03   0.273311E-03   0.384202E+00   0.484040E+01
   0.268000E+04   0.201325E-03   0.274663E-03   0.384208E+00   0.484040E+01
   0.269000E+04   0.202276E-03   0.276008E-03   0.384204E+00   0.484040E+01
   0.270000E+04   0.203221E-03   0.277345E-03   0.384202E+00   0.484040E+01
   0.271000E+04   0.204161E-03   0.278677E-03   0.384194E+00   0.484040E+01
   0.272000E+04   0.205098E-03   0.280004E-03   0.384193E+00   0.484040E+01
   0.273000E+04   0.206031E-03   0.281324E-03   0.384204E+00   0.484040E+01
   0.274000E+04   0.206961E-03   0.282639E-03   0.384206E+00   0.484040E+01
   0.275000E+04   0.207886E-03   0.283947E-03   0.384203E+00   0.484040E+01
   0.276000E+04   0.208806E-03   0.285249E-03   0.384200E+00   0.484040E+01
   0.277000E+04   0.209721E-03   0.286545E-03   0.384193E+00   0.484040E+01
   0.278000E+04   0.210632E-03   0.287834E-03   0.384195E+00   0.484040E+01
   0.279000E+04   0.211539E-03   0.289117E-03   0.384206E+00   0.484040E+01
   0.280000E+04   0.212442E-03   0.290445E-03   0.384205E+00   0.484040E+01
   0.281000E+04   0.213339E-03   0.291857E-03   0.384201E+00   0.484040E+01
   0.282000E+04   0.214230E-03   0.293263E-03   0.384197E+00   0.484040E+01
   0.283000E+04   0.215116E-03   0.294662E-03   0.384191E+00   0.484040E+01
   0.284000E+04   0.215997E-03   0.296055E-03   0.384197E+00   0.484040E+01
   0.285000E+04   0.216875E-03   0.297441E-03   0.384206E+00   0.484040E+01
   0.286000E+04   0.217747E-03   0.298821E-03   0.384203E+00   0.484040E+01
   0.287000E+04   0.218613E-03   0.300194E-03   0.384199E+00   0.484040E+01
   0.288000E+04   0.219474E-03   0.301560E-03   0.384194E+00   0.484040E+01
   0.289000E+04   0.220330E-03   0.302920E-03   0.384190E+00   0.484040E+01
   0.290000E+04   0.221182E-03   0.304273E-03   0.384199E+00   0.484040E+01
   0.291000E+04   0.222030E-03   0.305620E-03   0.384205E+00   0.484040E+01
   0.292000E+04   0.222874E-03   0.306960E-03   0.384202E+00   0.484040E+01
   0.293000E+04   0.223712E-03   0.308293E-03   0.384199E+00   0.484040E+01
   0.294000E+04   0.224545E-03   0.309621E-03   0.384192E+00   0.484040E+01
   0.295000E+04   0.225375E-03   0.310942E-03   0.384190E+00   0.484040E+01
   0.296000E+04   0.226200E-03   0.312257E-03   0.384201E+00   0.484040E+01
   0.297000E+04   0.227023E-03   0.313565E-03   0.384204E+00   0.484040E+01
   0.298000E+04   0.227841E-03   0.314867E-03   0.384201E+00   0.484040E+01
   0.299000E+04   0.228653E-03   0.316163E-03   0.384198E+00   0.484040E+01
   0.300000E+04   0.229461E-03   0.317453E-03   0.384190E+00   0.484040E+01
   0.301000E+04   0.230265E-03   0.318737E-03   0.384191E+00   0.484040E+01
   0.302000E+04   0.231065E-03   0.320014E-03   0.384202E+00   0.484040E+01
   0.303000E+04   0.231861E-03   0.321285E-03   0.384202E+00   0.484040E+01
   0.304000E+04   0.232651E-03   0.322549E-03   0.384199E+00   0.484040E+01
   0.305000E+04   0.233435E-03   0.323806E-03   0.384195E+00   0.484040E+01
   0.306000E+04   0.234214E-03   0.325057E-03   0.384188E+00   0.484040E+01
   0.307000E+04   0.234988E-03   0.326301E-03   0.384193E+00   0.484040E+01
   0.308000E+04   0.235759E-03   0.327538E-03   0.384203E+00   0.484040E+01
   0.309000E+04   0.236524E-03   0.328768E-03   0.384201E+00   0.484040E+01
   0.310000E+04   0.237283E-03   0.329991E-03   0.384196E+00   0.484040E+01
   0.311000E+04   0.238036E-03   0.331207E-03   0.384192E+00   0.484040E+01
   0.312000E+04   0.238784E-03   0.332416E-03   0.384187E+00   0.484040E+01
   0.313000E+04   0.239527E-03   0.333618E-03   0.384195E+00   0.484040E+01
   0.314000E+04   0.240267E-03   0.334813E-03   0.384202E+00   0.484040E+01
   0.315000E+04   0.241002E-03   0.336001E-03   0.384199E+00   0.484040E+01
   0.316000E+04   0.241732E-03   0.337182E-03   0.384196E+00   0.484040E+01
   0.317000E+04   0.242455E-03   0.338356E-03   0.384190E+00   0.484040E+01
   0.318000E+04   0.243175E-03   0.339524E-03   0.384186E+00   0.484040E+01
   0.319000E+04   0.243891E-03   0.340685E-03   0.384196E+00   0.484040E+01
   0.320000E+04   0.244604E-03   0.341839E-03   0.384201E+00   0.484040E+01
   0.321000E+04   0.245313E-03   0.342986E-03   0.384198E+00   0.484040E+01
   0.322000E+04   0.246016E-03   0.344127E-03   0.384195E+00   0.484040E+01
   0.323000E+04   0.246714E-03   0.345262E-03   0.384188E+00   0.484040E+01
   0.324000E+04   0.247409E-03   0.346391E-03   0.384186E+00   0.484040E+01
   0.325000E+04   0.248100E-03   0.347512E-03   0.384198E+00   0.484040E+01
   0.326000E+04   0.248788E-03   0.348628E-03   0.384200E+00   0.484040E+01
   0.327000E+04   0.249471E-03   0.349736E-03   0.384197E+00   0.484040E+01
   0.328000E+04   0.250148E-03   0.350838E-03   0.384194E+00   0.484040E+01
   0.329000E+04   0.250821E-03   0.351934E-03   0.384186E+00   0.484040E+01
   0.330000E+04   0.251489E-03   0.353024E-03   0.384187E+00   0.484040E+01
   0.331000E+04   0.252154E-03   0.354106E-03   0.384199E+00   0.484040E+01
   0.332000E+04   0.252814E-03   0.355182E-03   0.384198E+00   0.484040E+01
   0.333000E+04   0.253469E-03   0.356250E-03   0.384194E+00   0.484040E+01
   0.334000E+04   0.254117E-03   0.357312E-03   0.384190E+00   0.484040E+01
   0.335000E+04   0.254760E-03   0.358367E-03   0.384184E+00   0.484040E+01
   0.336000E+04   0.255399E-03   0.359415E-03   0.384189E+00   0.484040E+01
   0.337000E+04   0.256034E-03   0.360456E-03   0.384199E+00   0.484040E+01
   0.338000E+04   0.256663E-03   0.361489E-03   0.384197E+00   0.484040E+01
   0.339000E+04   0.257287E-03   0.362515E-03   0.384193E+00   0.484040E+01
   0.340000E+04   0.257905E-03   0.363534E-03   0.384188E+00   0.484040E+01
   0.341000E+04   0.258518E-03   0.364547E-03   0.384183E+00   0.484040E+01
   0.342000E+04   0.259127E-03   0.365552E-03   0.384190E+00   0.484040E+01
   0.343000E+04   0.259733E-03   0.366550E-03   0.384198E+00   0.484040E+01
   0.344000E+04   0.260334E-03   0.367541E-03   0.384196E+00   0.484040E+01
   0.345000E+04   0.260930E-03   0.368525E-03   0.384192E+00   0.484040E+01
   0.346000E+04   0.261521E-03   0.369502E-03   0.384186E+00   0.484040E+01
   0.347000E+04   0.262108E-03   0.370474E-03   0.384182E+00   0.484040E+01
   0.348000E+04   0.262691E-03   0.371438E-03   0.384192E+00   0.484040E+01
   0.349000E+04   0.263272E-03   0.372396E-03   0.384197E+00   0.484040E+01
   0.350000E+04   0.263849E-03   0.373347E-03   0.384194E+00   0.484040E+01
   0.351000E+04   0.264421E-03   0.374291E-03   0.384191E+00   0.484040E+01
   0.352000E+04   0.264989E-03   0.375230E-03   0.384184E+00   0.484040E+01
   0.353000E+04   0.265552E-03   0.376163E-03   0.384182E+00   0.484040E+01
   0.354000E+04   0.266113E-03   0.377089E-03   0.384193E+00   0.484040E+01
   0.355000E+04   0.266672E-03   0.378009E-03   0.384196E+00   0.484040E+01
   0.356000E+04   0.267226E-03   0.378923E-03   0.384193E+00   0.484040E+01
   0.357000E+04   0.267775E-03   0.379830E-03   0.384190E+00   0.484040E+01
   0.358000E+04   0.268319E-03   0.380732E-03   0.384182E+00   0.484040E+01
   0.359000E+04   0.268860E-03   0.381627E-03   0.384183E+00   0.484040E+01
   0.360000E+04   0.269397E-03   0.382516E-03   0.384194E+00   0.484040E+01
   0.361000E+04   0.269931E-03   0.383398E-03   0.384195E+00   0.484040E+01
   0.362000E+04   0.270460E-03   0.384274E-03   0.384191E+00   0.484040E+01
   0.363000E+04   0.270983E-03   0.385144E-03   0.384188E+00   0.484040E+01
   0.364000E+04   0.271502E-03   0.386007E-03   0.384180E+00   0.484040E+01
   0.365000E+04   0.272016E-03   0.386864E-03   0.384184E+00   0.484040E+01
   0.366000E+04   0.272527E-03   0.387714E-03   0.384194E+00   0.484040E+01
   0.367000E+04   0.273033E-03   0.388557E-03   0.384194E+00   0.484040E+01
   0.368000E+04   0.273535E-03   0.389393E-03   0.384189E+00   0.484040E+01
   0.369000E+04   0.274030E-03   0.390223E-03   0.384185E+00   0.484040E+01
   0.370000E+04   0.274521E-03   0.391046E-03   0.384179E+00   0.484040E+01
   0.371000E+04   0.275008E-03   0.391862E-03   0.384186E+00   0.484040E+01
   0.372000E+04   0.275492E-03   0.392672E-03   0.384194E+00   0.484040E+01
   0.373000E+04   0.275972E-03   0.393476E-03   0.384192E+00   0.484040E+01
   0.374000E+04   0.276447E-03   0.394272E-03   0.384188E+00   0.484040E+01
   0.375000E+04   0.276918E-03   0.395063E-03   0.384183E+00   0.484040E+01
   0.376000E+04   0.277384E-03   0.395847E-03   0.384179E+00   0.484040E+01
   0.377000E+04   0.277848E-03   0.396625E-03   0.384187E+00   0.484040E+01
   0.378000E+04   0.278310E-03   0.397397E-03   0.384193E+00   0.484040E+01
   0.379000E+04   0.278768E-03   0.398163E-03   0.384191E+00   0.484040E+01
   0.380000E+04   0.279222E-03   0.398923E-03   0.384188E+00   0.484040E+01
   0.381000E+04   0.279672E-03   0.399678E-03   0.384181E+00   0.484040E+01
   0.382000E+04   0.280119E-03   0.400427E-03   0.384178E+00   0.484040E+01
   0.383000E+04   0.280564E-03   0.401171E-03   0.384189E+00   0.484040E+01
   0.384000E+04   0.281008E-03   0.401909E-03   0.384193E+00   0.484040E+01
   0.385000E+04   0.281448E-03   0.402642E-03   0.384191E+00   0.484040E+01
   0.386000E+04   0.281884E-03   0.403369E-03   0.384188E+00   0.484040E+01
   0.387000E+04   0.282317E-03   0.404092E-03   0.384180E+00   0.484040E+01
   0.388000E+04   0.282746E-03   0.404809E-03   0.384179E+00   0.484040E+01
   0.389000E+04   0.283174E-03   0.405521E-03   0.384190E+00   0.484040E+01
   0.390000E+04   0.283600E-03   0.406228E-03   0.384192E+00   0.484040E+01
   0.391000E+04   0.284022E-03   0.406929E-03   0.384189E+00   0.484040E+01
   0.392000E+04   0.284439E-03   0.407625E-03   0.384186E+00   0.484040E+01
   0.393000E+04   0.284853E-03   0.408317E-03   0.384178E+00   0.484040E+01