title="breakthrough data set at     5 wells"
variables="time(days)","cavg","cpk","upk","zswi"
zone i=     1295
   0.100000E+02   0.374257E-10   0.614372E-10   0.476370E+00   0.485452E+01
   0.200000E+02   0.994456E-10   0.163345E-09   0.381719E+00   0.482921E+01
   0.300000E+02   0.216754E-09   0.355175E-09   0.380831E+00   0.482921E+01
   0.400000E+02   0.424652E-09   0.692500E-09   0.380465E+00   0.482921E+01
   0.500000E+02   0.774765E-09   0.125463E-08   0.380184E+00   0.482921E+01
   0.600000E+02   0.134088E-08   0.215216E-08   0.379921E+00   0.482921E+01
   0.700000E+02   0.222305E-08   0.353110E-08   0.379752E+00   0.482921E+01
   0.800000E+02   0.355387E-08   0.558034E-08   0.379614E+00   0.482921E+01
   0.900000E+02   0.549452E-08   0.852270E-08   0.379640E+00   0.482921E+01
   0.100000E+03   0.825692E-08   0.126474E-07   0.379501E+00   0.482921E+01
   0.110000E+03   0.120905E-07   0.182866E-07   0.379391E+00   0.482921E+01
   0.120000E+03   0.172867E-07   0.258206E-07   0.379305E+00   0.482921E+01
   0.130000E+03   0.241774E-07   0.356742E-07   0.379237E+00   0.482921E+01
   0.140000E+03   0.331324E-07   0.483110E-07   0.379184E+00   0.482921E+01
   0.150000E+03   0.445548E-07   0.642263E-07   0.379144E+00   0.482921E+01
   0.160000E+03   0.588755E-07   0.839385E-07   0.379114E+00   0.482921E+01
   0.170000E+03   0.765459E-07   0.107980E-06   0.379094E+00   0.482921E+01
   0.180000E+03   0.980302E-07   0.136886E-06   0.379081E+00   0.482921E+01
   0.190000E+03   0.123797E-06   0.171186E-06   0.379075E+00   0.482921E+01
   0.200000E+03   0.154309E-06   0.211397E-06   0.379074E+00   0.482921E+01
   0.210000E+03   0.190020E-06   0.258008E-06   0.379079E+00   0.482921E+01
   0.220000E+03   0.231361E-06   0.311480E-06   0.379087E+00   0.482921E+01
   0.230000E+03   0.278739E-06   0.372238E-06   0.379099E+00   0.482921E+01
   0.240000E+03   0.332527E-06   0.440660E-06   0.379114E+00   0.482921E+01
   0.250000E+03   0.393058E-06   0.517080E-06   0.379131E+00   0.482921E+01
   0.260000E+03   0.460617E-06   0.601781E-06   0.379150E+00   0.482921E+01
   0.270000E+03   0.535437E-06   0.694995E-06   0.379172E+00   0.482921E+01
   0.280000E+03   0.617698E-06   0.796901E-06   0.379194E+00   0.482921E+01
   0.290000E+03   0.707523E-06   0.907630E-06   0.379218E+00   0.482921E+01
   0.300000E+03   0.804985E-06   0.102726E-05   0.379243E+00   0.482921E+01
   0.310000E+03   0.910107E-06   0.115583E-05   0.379269E+00   0.482921E+01
   0.320000E+03   0.102287E-05   0.129333E-05   0.379295E+00   0.482921E+01
   0.330000E+03   0.114321E-05   0.143971E-05   0.379322E+00   0.482921E+01
   0.340000E+03   0.127106E-05   0.159488E-05   0.379349E+00   0.482921E+01
   0.350000E+03   0.140630E-05   0.175870E-05   0.379376E+00   0.482921E+01
   0.360000E+03   0.154880E-05   0.193102E-05   0.379403E+00   0.482921E+01
   0.370000E+03   0.169843E-05   0.211163E-05   0.379431E+00   0.482921E+01
   0.380000E+03   0.185502E-05   0.230032E-05   0.379458E+00   0.482921E+01
   0.390000E+03   0.201841E-05   0.249681E-05   0.379485E+00   0.482921E+01
   0.400000E+03   0.218839E-05   0.270082E-05   0.379512E+00   0.482921E+01
   0.410000E+03   0.236472E-05   0.291203E-05   0.379539E+00   0.482921E+01
   0.420000E+03   0.254712E-05   0.313011E-05   0.379566E+00   0.482921E+01
   0.430000E+03   0.273524E-05   0.335469E-05   0.379593E+00   0.482921E+01
   0.440000E+03   0.292867E-05   0.358540E-05   0.379619E+00   0.482921E+01
   0.450000E+03   0.312693E-05   0.382185E-05   0.379645E+00   0.482921E+01
   0.460000E+03   0.332950E-05   0.406361E-05   0.379671E+00   0.482921E+01
   0.470000E+03   0.353577E-05   0.431027E-05   0.379696E+00   0.482921E+01
   0.480000E+03   0.374513E-05   0.456138E-05   0.379722E+00   0.482921E+01
   0.490000E+03   0.395692E-05   0.481649E-05   0.379747E+00   0.482921E+01
   0.500000E+03   0.417053E-05   0.507514E-05   0.379772E+00   0.482921E+01
   0.510000E+03   0.438531E-05   0.533684E-05   0.379796E+00   0.482921E+01
   0.520000E+03   0.460070E-05   0.560111E-05   0.379821E+00   0.482921E+01
   0.530000E+03   0.481613E-05   0.586746E-05   0.379845E+00   0.482921E+01
   0.540000E+03   0.503107E-05   0.613540E-05   0.379868E+00   0.482921E+01
   0.550000E+03   0.524505E-05   0.640444E-05   0.379892E+00   0.482921E+01
   0.560000E+03   0.545757E-05   0.667412E-05   0.379915E+00   0.482921E+01
   0.570000E+03   0.566816E-05   0.694396E-05   0.379937E+00   0.482921E+01
   0.580000E+03   0.587636E-05   0.721354E-05   0.379959E+00   0.482921E+01
   0.590000E+03   0.608168E-05   0.748245E-05   0.379980E+00   0.482921E+01
   0.600000E+03   0.628364E-05   0.775029E-05   0.380001E+00   0.482921E+01
   0.610000E+03   0.648179E-05   0.801673E-05   0.380022E+00   0.482921E+01
   0.620000E+03   0.667568E-05   0.828144E-05   0.380042E+00   0.482921E+01
   0.630000E+03   0.686496E-05   0.854414E-05   0.380062E+00   0.482921E+01
   0.640000E+03   0.704936E-05   0.880457E-05   0.380082E+00   0.482921E+01
   0.650000E+03   0.722872E-05   0.906250E-05   0.380101E+00   0.482921E+01
   0.660000E+03   0.740299E-05   0.931775E-05   0.380120E+00   0.482921E+01
   0.670000E+03   0.757225E-05   0.957014E-05   0.380139E+00   0.482921E+01
   0.680000E+03   0.773670E-05   0.981955E-05   0.380158E+00   0.482921E+01
   0.690000E+03   0.789660E-05   0.100658E-04   0.380176E+00   0.482921E+01
   0.700000E+03   0.805231E-05   0.103090E-04   0.380194E+00   0.482921E+01
   0.710000E+03   0.820420E-05   0.105488E-04   0.380211E+00   0.482921E+01
   0.720000E+03   0.835264E-05   0.107854E-04   0.380228E+00   0.482921E+01
   0.730000E+03   0.849798E-05   0.110188E-04   0.380245E+00   0.482921E+01
   0.740000E+03   0.864049E-05   0.112489E-04   0.380262E+00   0.482921E+01
   0.750000E+03   0.878037E-05   0.114759E-04   0.380278E+00   0.482921E+01
   0.760000E+03   0.891772E-05   0.116997E-04   0.380294E+00   0.482921E+01
   0.770000E+03   0.905251E-05   0.119206E-04   0.380310E+00   0.482921E+01
   0.780000E+03   0.918462E-05   0.121386E-04   0.380325E+00   0.482921E+01
   0.790000E+03   0.931382E-05   0.123539E-04   0.380340E+00   0.482921E+01
   0.800000E+03   0.943977E-05   0.125667E-04   0.380354E+00   0.482921E+01
   0.810000E+03   0.956207E-05   0.127772E-04   0.380368E+00   0.482921E+01
   0.820000E+03   0.968025E-05   0.129856E-04   0.380382E+00   0.482921E+01
   0.830000E+03   0.979379E-05   0.131920E-04   0.380396E+00   0.482921E+01
   0.840000E+03   0.990220E-05   0.133969E-04   0.380409E+00   0.482921E+01
   0.850000E+03   0.100050E-04   0.136003E-04   0.380422E+00   0.482921E+01
   0.860000E+03   0.101018E-04   0.138026E-04   0.380435E+00   0.482921E+01
   0.870000E+03   0.101922E-04   0.140040E-04   0.380448E+00   0.482921E+01
   0.880000E+03   0.102762E-04   0.142047E-04   0.380460E+00   0.482921E+01
   0.890000E+03   0.103537E-04   0.144048E-04   0.380473E+00   0.482921E+01
   0.900000E+03   0.104250E-04   0.146047E-04   0.380484E+00   0.482921E+01
   0.910000E+03   0.104904E-04   0.148044E-04   0.380496E+00   0.482921E+01
   0.920000E+03   0.105508E-04   0.150041E-04   0.380507E+00   0.482921E+01
   0.930000E+03   0.106068E-04   0.152039E-04   0.380519E+00   0.482921E+01
   0.940000E+03   0.106596E-04   0.154038E-04   0.380530E+00   0.482921E+01
   0.950000E+03   0.107102E-04   0.156038E-04   0.380540E+00   0.482921E+01
   0.960000E+03   0.107600E-04   0.158040E-04   0.380551E+00   0.482921E+01
   0.970000E+03   0.108101E-04   0.160044E-04   0.380561E+00   0.482921E+01
   0.980000E+03   0.108618E-04   0.162049E-04   0.380571E+00   0.482921E+01
   0.990000E+03   0.109161E-04   0.164054E-04   0.380580E+00   0.482921E+01
   0.100000E+04   0.109741E-04   0.166061E-04   0.380589E+00   0.482921E+01
   0.101000E+04   0.110365E-04   0.168067E-04   0.380598E+00   0.482921E+01
   0.102000E+04   0.111042E-04   0.170074E-04   0.380607E+00   0.482921E+01
   0.103000E+04   0.111776E-04   0.172082E-04   0.380616E+00   0.482921E+01
   0.104000E+04   0.112572E-04   0.174090E-04   0.380624E+00   0.482921E+01
   0.105000E+04   0.113434E-04   0.176099E-04   0.380632E+00   0.482921E+01
   0.106000E+04   0.114365E-04   0.178109E-04   0.380639E+00   0.482921E+01
   0.107000E+04   0.115366E-04   0.180119E-04   0.380647E+00   0.482921E+01
   0.108000E+04   0.116441E-04   0.182131E-04   0.380654E+00   0.482921E+01
   0.109000E+04   0.117590E-04   0.184143E-04   0.380661E+00   0.482921E+01
   0.110000E+04   0.118814E-04   0.186156E-04   0.380668E+00   0.482921E+01
   0.111000E+04   0.120115E-04   0.188171E-04   0.380674E+00   0.482921E+01
   0.112000E+04   0.121494E-04   0.190186E-04   0.380681E+00   0.482921E+01
   0.113000E+04   0.122952E-04   0.192201E-04   0.380687E+00   0.482921E+01
   0.114000E+04   0.124490E-04   0.194218E-04   0.380693E+00   0.482921E+01
   0.115000E+04   0.126108E-04   0.196234E-04   0.380699E+00   0.482921E+01
   0.116000E+04   0.127807E-04   0.198251E-04   0.380704E+00   0.482921E+01
   0.117000E+04   0.129588E-04   0.200268E-04   0.380710E+00   0.482921E+01
   0.118000E+04   0.131452E-04   0.202285E-04   0.380715E+00   0.482921E+01
   0.119000E+04   0.133398E-04   0.204301E-04   0.380720E+00   0.482921E+01
   0.120000E+04   0.135427E-04   0.206317E-04   0.380725E+00   0.482921E+01
   0.121000E+04   0.137539E-04   0.208332E-04   0.380730E+00   0.482921E+01
   0.122000E+04   0.139735E-04   0.210347E-04   0.380734E+00   0.482921E+01
   0.123000E+04   0.142013E-04   0.212361E-04   0.380739E+00   0.482921E+01
   0.124000E+04   0.144374E-04   0.214374E-04   0.380743E+00   0.482921E+01
   0.125000E+04   0.146817E-04   0.216386E-04   0.380747E+00   0.482921E+01
   0.126000E+04   0.149342E-04   0.218397E-04   0.380752E+00   0.482921E+01
   0.127000E+04   0.151948E-04   0.220407E-04   0.380756E+00   0.482921E+01
   0.128000E+04   0.154635E-04   0.222415E-04   0.380760E+00   0.482921E+01
   0.129000E+04   0.157403E-04   0.224423E-04   0.380764E+00   0.482921E+01
   0.130000E+04   0.160252E-04   0.226430E-04   0.380768E+00   0.482921E+01
   0.131000E+04   0.163181E-04   0.228436E-04   0.380772E+00   0.482921E+01
   0.132000E+04   0.166191E-04   0.230440E-04   0.380776E+00   0.482921E+01
   0.133000E+04   0.169282E-04   0.232444E-04   0.380780E+00   0.482921E+01
   0.134000E+04   0.172455E-04   0.234447E-04   0.380783E+00   0.482921E+01
   0.135000E+04   0.175711E-04   0.236449E-04   0.380787E+00   0.482921E+01
   0.136000E+04   0.179048E-04   0.238450E-04   0.380791E+00   0.482921E+01
   0.137000E+04   0.182468E-04   0.240450E-04   0.380794E+00   0.482921E+01
   0.138000E+04   0.185968E-04   0.242450E-04   0.380798E+00   0.482921E+01
   0.139000E+04   0.189548E-04   0.244449E-04   0.380801E+00   0.482921E+01
   0.140000E+04   0.193206E-04   0.246449E-04   0.380804E+00   0.482921E+01
   0.141000E+04   0.196938E-04   0.248448E-04   0.380808E+00   0.482921E+01
   0.142000E+04   0.200743E-04   0.250447E-04   0.380811E+00   0.482921E+01
   0.143000E+04   0.204616E-04   0.252447E-04   0.380814E+00   0.482921E+01
   0.144000E+04   0.208553E-04   0.254447E-04   0.380817E+00   0.482921E+01
   0.145000E+04   0.212550E-04   0.256448E-04   0.380820E+00   0.482921E+01
   0.146000E+04   0.216603E-04   0.258450E-04   0.380823E+00   0.482921E+01
   0.147000E+04   0.220706E-04   0.260453E-04   0.380826E+00   0.482921E+01
   0.148000E+04   0.224854E-04   0.262456E-04   0.380829E+00   0.482921E+01
   0.149000E+04   0.229042E-04   0.264461E-04   0.380831E+00   0.482921E+01
   0.150000E+04   0.233265E-04   0.266466E-04   0.380834E+00   0.482921E+01
   0.151000E+04   0.237518E-04   0.268473E-04   0.380836E+00   0.482921E+01
   0.152000E+04   0.241796E-04   0.270479E-04   0.380839E+00   0.482921E+01
   0.153000E+04   0.246094E-04   0.272487E-04   0.380841E+00   0.482921E+01
   0.154000E+04   0.250408E-04   0.274494E-04   0.380843E+00   0.482921E+01
   0.155000E+04   0.254733E-04   0.276502E-04   0.380846E+00   0.482921E+01
   0.156000E+04   0.259064E-04   0.278510E-04   0.380848E+00   0.482921E+01
   0.157000E+04   0.263399E-04   0.280517E-04   0.380850E+00   0.482921E+01
   0.158000E+04   0.267731E-04   0.282523E-04   0.380852E+00   0.482921E+01
   0.159000E+04   0.272057E-04   0.290434E-04   0.380854E+00   0.482921E+01
   0.160000E+04   0.276373E-04   0.299883E-04   0.380856E+00   0.482921E+01
   0.161000E+04   0.280674E-04   0.309301E-04   0.380857E+00   0.482921E+01
   0.162000E+04   0.284959E-04   0.318674E-04   0.380859E+00   0.482921E+01
   0.163000E+04   0.289222E-04   0.327990E-04   0.380861E+00   0.482921E+01
   0.164000E+04   0.293462E-04   0.337239E-04   0.380862E+00   0.482921E+01
   0.165000E+04   0.297675E-04   0.346411E-04   0.380864E+00   0.482921E+01
   0.166000E+04   0.301860E-04   0.355499E-04   0.380865E+00   0.482921E+01
   0.167000E+04   0.306015E-04   0.364495E-04   0.380866E+00   0.482921E+01
   0.168000E+04   0.310138E-04   0.373395E-04   0.380867E+00   0.482921E+01
   0.169000E+04   0.314229E-04   0.382195E-04   0.380869E+00   0.482921E+01
   0.170000E+04   0.318286E-04   0.390893E-04   0.380870E+00   0.482921E+01
   0.171000E+04   0.322309E-04   0.399486E-04   0.380871E+00   0.482921E+01
   0.172000E+04   0.326298E-04   0.407975E-04   0.380872E+00   0.482921E+01
   0.173000E+04   0.330251E-04   0.416358E-04   0.380872E+00   0.482921E+01
   0.174000E+04   0.334170E-04   0.424637E-04   0.380873E+00   0.482921E+01
   0.175000E+04   0.338053E-04   0.432813E-04   0.380874E+00   0.482921E+01
   0.176000E+04   0.341902E-04   0.440888E-04   0.380875E+00   0.482921E+01
   0.177000E+04   0.345716E-04   0.448863E-04   0.380875E+00   0.482921E+01
   0.178000E+04   0.349496E-04   0.456741E-04   0.380876E+00   0.482921E+01
   0.179000E+04   0.353241E-04   0.464523E-04   0.380876E+00   0.482921E+01
   0.180000E+04   0.356953E-04   0.472213E-04   0.380876E+00   0.482921E+01
   0.181000E+04   0.360631E-04   0.479813E-04   0.380877E+00   0.482921E+01
   0.182000E+04   0.364276E-04   0.487325E-04   0.380877E+00   0.482921E+01
   0.183000E+04   0.367888E-04   0.494751E-04   0.380877E+00   0.482921E+01
   0.184000E+04   0.371468E-04   0.502095E-04   0.380877E+00   0.482921E+01
   0.185000E+04   0.375017E-04   0.509358E-04   0.380877E+00   0.482921E+01
   0.186000E+04   0.378534E-04   0.516544E-04   0.380877E+00   0.482921E+01
   0.187000E+04   0.382020E-04   0.523655E-04   0.380877E+00   0.482921E+01
   0.188000E+04   0.385476E-04   0.530692E-04   0.380876E+00   0.482921E+01
   0.189000E+04   0.388903E-04   0.537660E-04   0.380876E+00   0.482921E+01
   0.190000E+04   0.392301E-04   0.544561E-04   0.380876E+00   0.482921E+01
   0.191000E+04   0.395671E-04   0.551397E-04   0.380876E+00   0.482921E+01
   0.192000E+04   0.399014E-04   0.558174E-04   0.380875E+00   0.482921E+01
   0.193000E+04   0.402332E-04   0.564894E-04   0.380875E+00   0.482921E+01
   0.194000E+04   0.405626E-04   0.571563E-04   0.380875E+00   0.482921E+01
   0.195000E+04   0.408898E-04   0.578186E-04   0.380874E+00   0.482921E+01
   0.196000E+04   0.412150E-04   0.584770E-04   0.380874E+00   0.482921E+01
   0.197000E+04   0.415383E-04   0.591320E-04   0.380873E+00   0.482921E+01
   0.198000E+04   0.418600E-04   0.597845E-04   0.380873E+00   0.482921E+01
   0.199000E+04   0.421804E-04   0.604353E-04   0.380873E+00   0.482921E+01
   0.200000E+04   0.424997E-04   0.610851E-04   0.380872E+00   0.482921E+01
   0.201000E+04   0.428182E-04   0.617349E-04   0.380871E+00   0.482921E+01
   0.202000E+04   0.431361E-04   0.623856E-04   0.380871E+00   0.482921E+01
   0.203000E+04   0.434537E-04   0.630381E-04   0.380870E+00   0.482921E+01
   0.204000E+04   0.437712E-04   0.636933E-04   0.380870E+00   0.482921E+01
   0.205000E+04   0.440890E-04   0.643520E-04   0.380869E+00   0.482921E+01
   0.206000E+04   0.444072E-04   0.650151E-04   0.380868E+00   0.482921E+01
   0.207000E+04   0.447261E-04   0.656833E-04   0.380867E+00   0.482921E+01
   0.208000E+04   0.450458E-04   0.663575E-04   0.380867E+00   0.482921E+01
   0.209000E+04   0.453666E-04   0.670382E-04   0.380866E+00   0.482921E+01
   0.210000E+04   0.456887E-04   0.677262E-04   0.380865E+00   0.482921E+01
   0.211000E+04   0.460122E-04   0.684219E-04   0.380864E+00   0.482921E+01
   0.212000E+04   0.463372E-04   0.691260E-04   0.380863E+00   0.482921E+01
   0.213000E+04   0.466638E-04   0.698388E-04   0.380862E+00   0.482921E+01
   0.214000E+04   0.469923E-04   0.705608E-04   0.380861E+00   0.482921E+01
   0.215000E+04   0.473226E-04   0.712922E-04   0.380860E+00   0.482921E+01
   0.216000E+04   0.476548E-04   0.720333E-04   0.380859E+00   0.482921E+01
   0.217000E+04   0.479890E-04   0.727844E-04   0.380858E+00   0.482921E+01
   0.218000E+04   0.483252E-04   0.735455E-04   0.380857E+00   0.482921E+01
   0.219000E+04   0.486634E-04   0.743168E-04   0.380856E+00   0.482921E+01
   0.220000E+04   0.490037E-04   0.750982E-04   0.380855E+00   0.482921E+01
   0.221000E+04   0.493460E-04   0.758898E-04   0.380854E+00   0.482921E+01
   0.222000E+04   0.496903E-04   0.766914E-04   0.380853E+00   0.482921E+01
   0.223000E+04   0.500366E-04   0.775028E-04   0.380852E+00   0.482921E+01
   0.224000E+04   0.503848E-04   0.783240E-04   0.380850E+00   0.482921E+01
   0.225000E+04   0.507348E-04   0.791546E-04   0.380849E+00   0.482921E+01
   0.226000E+04   0.510865E-04   0.799943E-04   0.380848E+00   0.482921E+01
   0.227000E+04   0.514399E-04   0.808429E-04   0.380847E+00   0.482921E+01
   0.228000E+04   0.517949E-04   0.816998E-04   0.380845E+00   0.482921E+01
   0.229000E+04   0.521513E-04   0.825648E-04   0.380844E+00   0.482921E+01
   0.230000E+04   0.525091E-04   0.834374E-04   0.380843E+00   0.482921E+01
   0.231000E+04   0.528681E-04   0.843171E-04   0.380841E+00   0.482921E+01
   0.232000E+04   0.532282E-04   0.852034E-04   0.380840E+00   0.482921E+01
   0.233000E+04   0.535893E-04   0.860960E-04   0.380838E+00   0.482921E+01
   0.234000E+04   0.539513E-04   0.869942E-04   0.380837E+00   0.482921E+01
   0.235000E+04   0.543140E-04   0.878975E-04   0.380836E+00   0.482921E+01
   0.236000E+04   0.546774E-04   0.888057E-04   0.380834E+00   0.482921E+01
   0.237000E+04   0.550414E-04   0.897180E-04   0.380833E+00   0.482921E+01
   0.238000E+04   0.554057E-04   0.906342E-04   0.380831E+00   0.482921E+01
   0.239000E+04   0.557705E-04   0.915539E-04   0.380830E+00   0.482921E+01
   0.240000E+04   0.561355E-04   0.924766E-04   0.380828E+00   0.482921E+01
   0.241000E+04   0.565007E-04   0.934020E-04   0.380826E+00   0.482921E+01
   0.242000E+04   0.568661E-04   0.943298E-04   0.380825E+00   0.482921E+01
   0.243000E+04   0.572316E-04   0.952599E-04   0.380823E+00   0.482921E+01
   0.244000E+04   0.575972E-04   0.961919E-04   0.380822E+00   0.482921E+01
   0.245000E+04   0.579628E-04   0.971258E-04   0.380820E+00   0.482921E+01
   0.246000E+04   0.583285E-04   0.980614E-04   0.380818E+00   0.482921E+01
   0.247000E+04   0.586943E-04   0.989987E-04   0.380817E+00   0.482921E+01
   0.248000E+04   0.590602E-04   0.999376E-04   0.380815E+00   0.482921E+01
   0.249000E+04   0.594263E-04   0.100878E-03   0.380814E+00   0.482921E+01
   0.250000E+04   0.597925E-04   0.101821E-03   0.380812E+00   0.482921E+01
   0.251000E+04   0.601589E-04   0.102765E-03   0.380810E+00   0.482921E+01
   0.252000E+04   0.605256E-04   0.103711E-03   0.380809E+00   0.482921E+01
   0.253000E+04   0.608926E-04   0.104660E-03   0.380807E+00   0.482921E+01
   0.254000E+04   0.612601E-04   0.105610E-03   0.380806E+00   0.482921E+01
   0.255000E+04   0.616280E-04   0.106563E-03   0.380804E+00   0.482921E+01
   0.256000E+04   0.619965E-04   0.107519E-03   0.380803E+00   0.482921E+01
   0.257000E+04   0.623656E-04   0.108478E-03   0.380801E+00   0.482921E+01
   0.258000E+04   0.627353E-04   0.109440E-03   0.380800E+00   0.482921E+01
   0.259000E+04   0.631059E-04   0.110405E-03   0.380798E+00   0.482921E+01
   0.260000E+04   0.634772E-04   0.111374E-03   0.380797E+00   0.482921E+01
   0.261000E+04   0.638494E-04   0.112346E-03   0.380795E+00   0.482921E+01
   0.262000E+04   0.642226E-04   0.113323E-03   0.380794E+00   0.482921E+01
   0.263000E+04   0.645967E-04   0.114303E-03   0.380793E+00   0.482921E+01
   0.264000E+04   0.649718E-04   0.115287E-03   0.380791E+00   0.482921E+01
   0.265000E+04   0.653481E-04   0.116276E-03   0.380790E+00   0.482921E+01
   0.266000E+04   0.657254E-04   0.117268E-03   0.380789E+00   0.482921E+01
   0.267000E+04   0.661038E-04   0.118265E-03   0.380787E+00   0.482921E+01
   0.268000E+04   0.664833E-04   0.119267E-03   0.380786E+00   0.482921E+01
   0.269000E+04   0.668639E-04   0.120273E-03   0.380785E+00   0.482921E+01
   0.270000E+04   0.672456E-04   0.121283E-03   0.380783E+00   0.482921E+01
   0.271000E+04   0.676284E-04   0.122297E-03   0.380782E+00   0.482921E+01
   0.272000E+04   0.680123E-04   0.123315E-03   0.380781E+00   0.482921E+01
   0.273000E+04   0.683971E-04   0.124338E-03   0.380780E+00   0.482921E+01
   0.274000E+04   0.687829E-04   0.125364E-03   0.380778E+00   0.482921E+01
   0.275000E+04   0.691696E-04   0.126393E-03   0.380777E+00   0.482921E+01
   0.276000E+04   0.695571E-04   0.127426E-03   0.380776E+00   0.482921E+01
   0.277000E+04   0.699453E-04   0.128462E-03   0.380775E+00   0.482921E+01
   0.278000E+04   0.703344E-04   0.129501E-03   0.380773E+00   0.482921E+01
   0.279000E+04   0.707240E-04   0.130543E-03   0.380772E+00   0.482921E+01
   0.280000E+04   0.711143E-04   0.131587E-03   0.380771E+00   0.482921E+01
   0.281000E+04   0.715050E-04   0.132633E-03   0.380770E+00   0.482921E+01
   0.282000E+04   0.718963E-04   0.133681E-03   0.380768E+00   0.482921E+01
   0.283000E+04   0.722880E-04   0.134731E-03   0.380767E+00   0.482921E+01
   0.284000E+04   0.726800E-04   0.135783E-03   0.380766E+00   0.482921E+01
   0.285000E+04   0.730724E-04   0.136836E-03   0.380764E+00   0.482921E+01
   0.286000E+04   0.734650E-04   0.137890E-03   0.380763E+00   0.482921E+01
   0.287000E+04   0.738579E-04   0.138945E-03   0.380762E+00   0.482921E+01
   0.288000E+04   0.742510E-04   0.140001E-03   0.380761E+00   0.482921E+01
   0.289000E+04   0.746442E-04   0.141057E-03   0.380759E+00   0.482921E+01
   0.290000E+04   0.750375E-04   0.142114E-03   0.380758E+00   0.482921E+01
   0.291000E+04   0.754309E-04   0.143172E-03   0.380757E+00   0.482921E+01
   0.292000E+04   0.758244E-04   0.144230E-03   0.380755E+00   0.482921E+01
   0.293000E+04   0.762179E-04   0.145288E-03   0.380754E+00   0.482921E+01
   0.294000E+04   0.766115E-04   0.146346E-03   0.380753E+00   0.482921E+01
   0.295000E+04   0.770050E-04   0.147404E-03   0.380751E+00   0.482921E+01
   0.296000E+04   0.773984E-04   0.148462E-03   0.380750E+00   0.482921E+01
   0.297000E+04   0.777919E-04   0.149520E-03   0.380749E+00   0.482921E+01
   0.298000E+04   0.781852E-04   0.150578E-03   0.380747E+00   0.482921E+01
   0.299000E+04   0.785785E-04   0.151635E-03   0.380746E+00   0.482921E+01
   0.300000E+04   0.789716E-04   0.152692E-03   0.380745E+00   0.482921E+01
   0.301000E+04   0.793647E-04   0.153748E-03   0.380743E+00   0.482921E+01
   0.302000E+04   0.797576E-04   0.154804E-03   0.380742E+00   0.482921E+01
   0.303000E+04   0.801503E-04   0.155859E-03   0.380741E+00   0.482921E+01
   0.304000E+04   0.805428E-04   0.156914E-03   0.380739E+00   0.482921E+01
   0.305000E+04   0.809352E-04   0.157968E-03   0.380738E+00   0.482921E+01
   0.306000E+04   0.813273E-04   0.159021E-03   0.380737E+00   0.482921E+01
   0.307000E+04   0.817192E-04   0.160073E-03   0.380735E+00   0.482921E+01
   0.308000E+04   0.821109E-04   0.161124E-03   0.380734E+00   0.482921E+01
   0.309000E+04   0.825024E-04   0.162175E-03   0.380733E+00   0.482921E+01
   0.310000E+04   0.828935E-04   0.163224E-03   0.380731E+00   0.482921E+01
   0.311000E+04   0.832844E-04   0.164272E-03   0.380730E+00   0.482921E+01
   0.312000E+04   0.836750E-04   0.165319E-03   0.380729E+00   0.482921E+01
   0.313000E+04   0.840652E-04   0.166365E-03   0.380727E+00   0.482921E+01
   0.314000E+04   0.844551E-04   0.167410E-03   0.380726E+00   0.482921E+01
   0.315000E+04   0.848447E-04   0.168453E-03   0.380725E+00   0.482921E+01
   0.316000E+04   0.852340E-04   0.169495E-03   0.380724E+00   0.482921E+01
   0.317000E+04   0.856228E-04   0.170536E-03   0.380722E+00   0.482921E+01
   0.318000E+04   0.860113E-04   0.171575E-03   0.380721E+00   0.482921E+01
   0.319000E+04   0.863993E-04   0.172612E-03   0.380720E+00   0.482921E+01
   0.320000E+04   0.867869E-04   0.173648E-03   0.380718E+00   0.482921E+01
   0.321000E+04   0.871741E-04   0.174683E-03   0.380717E+00   0.482921E+01
   0.322000E+04   0.875609E-04   0.175716E-03   0.380716E+00   0.482921E+01
   0.323000E+04   0.879472E-04   0.176747E-03   0.380715E+00   0.482921E+01
   0.324000E+04   0.883330E-04   0.177777E-03   0.380714E+00   0.482921E+01
   0.325000E+04   0.887183E-04   0.178804E-03   0.380712E+00   0.482921E+01
   0.326000E+04   0.891030E-04   0.179830E-03   0.380711E+00   0.482921E+01
   0.327000E+04   0.894873E-04   0.180854E-03   0.380710E+00   0.482921E+01
   0.328000E+04   0.898710E-04   0.181876E-03   0.380709E+00   0.482921E+01
   0.329000E+04   0.902541E-04   0.182896E-03   0.380707E+00   0.482921E+01
   0.330000E+04   0.906367E-04   0.183915E-03   0.380706E+00   0.482921E+01
   0.331000E+04   0.910186E-04   0.184931E-03   0.380705E+00   0.482921E+01
   0.332000E+04   0.913999E-04   0.185944E-03   0.380704E+00   0.482921E+01
   0.333000E+04   0.917805E-04   0.186956E-03   0.380703E+00   0.482921E+01
   0.334000E+04   0.921605E-04   0.187966E-03   0.380702E+00   0.482921E+01
   0.335000E+04   0.925398E-04   0.188973E-03   0.380700E+00   0.482921E+01
   0.336000E+04   0.929183E-04   0.189977E-03   0.380699E+00   0.482921E+01
   0.337000E+04   0.932962E-04   0.190980E-03   0.380698E+00   0.482921E+01
   0.338000E+04   0.936732E-04   0.191979E-03   0.380697E+00   0.482921E+01
   0.339000E+04   0.940495E-04   0.192977E-03   0.380696E+00   0.482921E+01
   0.340000E+04   0.944250E-04   0.193971E-03   0.380695E+00   0.482921E+01
   0.341000E+04   0.947996E-04   0.194963E-03   0.380694E+00   0.482921E+01
   0.342000E+04   0.951734E-04   0.195952E-03   0.380692E+00   0.482921E+01
   0.343000E+04   0.955463E-04   0.196939E-03   0.380691E+00   0.482921E+01
   0.344000E+04   0.959183E-04   0.197922E-03   0.380690E+00   0.482921E+01
   0.345000E+04   0.962894E-04   0.198902E-03   0.380689E+00   0.482921E+01
   0.346000E+04   0.966595E-04   0.199880E-03   0.380688E+00   0.482921E+01
   0.347000E+04   0.970286E-04   0.200854E-03   0.380687E+00   0.482921E+01
   0.348000E+04   0.973968E-04   0.201825E-03   0.380686E+00   0.482921E+01
   0.349000E+04   0.977640E-04   0.202793E-03   0.380685E+00   0.482921E+01
   0.350000E+04   0.981301E-04   0.203758E-03   0.380684E+00   0.482921E+01
   0.351000E+04   0.984952E-04   0.204719E-03   0.380683E+00   0.482921E+01
   0.352000E+04   0.988592E-04   0.205678E-03   0.380681E+00   0.482921E+01
   0.353000E+04   0.992221E-04   0.206632E-03   0.380680E+00   0.482921E+01
   0.354000E+04   0.995839E-04   0.207584E-03   0.380679E+00   0.482921E+01
   0.355000E+04   0.999446E-04   0.208531E-03   0.380678E+00   0.482921E+01
   0.356000E+04   0.100304E-03   0.209476E-03   0.380677E+00   0.482921E+01
   0.357000E+04   0.100663E-03   0.210416E-03   0.380676E+00   0.482921E+01
   0.358000E+04   0.101020E-03   0.211354E-03   0.380675E+00   0.482921E+01
   0.359000E+04   0.101376E-03   0.212287E-03   0.380674E+00   0.482921E+01
   0.360000E+04   0.101731E-03   0.213217E-03   0.380673E+00   0.482921E+01
   0.361000E+04   0.102084E-03   0.214143E-03   0.380672E+00   0.482921E+01
   0.362000E+04   0.102437E-03   0.215066E-03   0.380671E+00   0.482921E+01
   0.363000E+04   0.102788E-03   0.215985E-03   0.380670E+00   0.482921E+01
   0.364000E+04   0.103138E-03   0.216900E-03   0.380669E+00   0.482921E+01
   0.365000E+04   0.103487E-03   0.217812E-03   0.380668E+00   0.482921E+01
   0.366000E+04   0.103834E-03   0.218720E-03   0.380667E+00   0.482921E+01
   0.367000E+04   0.104181E-03   0.219624E-03   0.380666E+00   0.482921E+01
   0.368000E+04   0.104526E-03   0.220524E-03   0.380665E+00   0.482921E+01
   0.369000E+04   0.104870E-03   0.221421E-03   0.380664E+00   0.482921E+01
   0.370000E+04   0.105212E-03   0.222314E-03   0.380662E+00   0.482921E+01
   0.371000E+04   0.105554E-03   0.223204E-03   0.380661E+00   0.482921E+01
   0.372000E+04   0.105894E-03   0.224090E-03   0.380660E+00   0.482921E+01
   0.373000E+04   0.106232E-03   0.224972E-03   0.380659E+00   0.482921E+01
   0.374000E+04   0.106570E-03   0.225851E-03   0.380658E+00   0.482921E+01
   0.375000E+04   0.106906E-03   0.226726E-03   0.380657E+00   0.482921E+01
   0.376000E+04   0.107242E-03   0.227598E-03   0.380656E+00   0.482921E+01
   0.377000E+04   0.107576E-03   0.228467E-03   0.380655E+00   0.482921E+01
   0.378000E+04   0.107908E-03   0.229331E-03   0.380654E+00   0.482921E+01
   0.379000E+04   0.108240E-03   0.230193E-03   0.380653E+00   0.482921E+01
   0.380000E+04   0.108570E-03   0.231051E-03   0.380652E+00   0.482921E+01
   0.381000E+04   0.108899E-03   0.231906E-03   0.380651E+00   0.482921E+01
   0.382000E+04   0.109227E-03   0.232757E-03   0.380650E+00   0.482921E+01
   0.383000E+04   0.109554E-03   0.233605E-03   0.380649E+00   0.482921E+01
   0.384000E+04   0.109879E-03   0.234450E-03   0.380648E+00   0.482921E+01
   0.385000E+04   0.110203E-03   0.235292E-03   0.380647E+00   0.482921E+01
   0.386000E+04   0.110526E-03   0.236131E-03   0.380646E+00   0.482921E+01
   0.387000E+04   0.110848E-03   0.236967E-03   0.380645E+00   0.482921E+01
   0.388000E+04   0.111169E-03   0.237799E-03   0.380644E+00   0.482921E+01
   0.389000E+04   0.111489E-03   0.238629E-03   0.380643E+00   0.482921E+01
   0.390000E+04   0.111808E-03   0.239456E-03   0.380642E+00   0.482921E+01
   0.391000E+04   0.112125E-03   0.240280E-03   0.380641E+00   0.482921E+01
   0.392000E+04   0.112441E-03   0.241101E-03   0.380641E+00   0.482921E+01
   0.393000E+04   0.112757E-03   0.241919E-03   0.380640E+00   0.482921E+01